Title: *** SPICE deck for cell MUX_8_1{lay} from library Proj3
Date: Sun May 10 18:22:39 2020
Plotname: Operating Point
Flags: real
No. Variables: 2052
No. Points:            1
Offset:   0.0000000000000000e+000
Command: Linear Technology Corporation LTspice IV
Variables:
	0	V(net@190)	voltage
	1	V(net@79)	voltage
	2	V(net@93)	voltage
	3	V(i2#3nmos@1_poly-right)	voltage
	4	V(net@1)	voltage
	5	V(i6#3nmos@2_poly-right)	voltage
	6	V(s0#13nmos@3_poly-right)	voltage
	7	V(net@79#3contact@8_metal-1-polysilicon-1)	voltage
	8	V(s0#16nmos@4_poly-right)	voltage
	9	V(net@7#5contact@80_metal-1-metal-2)	voltage
	10	V(net@93#2nmos@5_poly-right)	voltage
	11	V(net@141)	voltage
	12	V(net@90)	voltage
	13	V(net@46)	voltage
	14	V(i0#1nmos@7_poly-right)	voltage
	15	V(net@13)	voltage
	16	V(i4#0nmos@8_poly-right)	voltage
	17	V(s0#8nmos@9_poly-right)	voltage
	18	V(net@90#3contact@35_metal-1-polysilicon-1)	voltage
	19	V(s0#20nmos@10_poly-right)	voltage
	20	V(net@6#2contact@47_metal-1-n-act)	voltage
	21	V(net@46#6nmos@11_poly-right)	voltage
	22	V(net@17)	voltage
	23	V(net@8)	voltage
	24	V(net@4)	voltage
	25	V(net@6)	voltage
	26	V(net@219)	voltage
	27	V(net@7#14nmos@14_poly-right)	voltage
	28	V(s1#2nmos@15_poly-right)	voltage
	29	V(net@8#3contact@64_metal-1-polysilicon-1)	voltage
	30	V(s1#5nmos@16_poly-right)	voltage
	31	V(net@36)	voltage
	32	V(net@4#4nmos@17_poly-right)	voltage
	33	V(net@563)	voltage
	34	V(net@511#8nmos@36_poly-right)	voltage
	35	V(net@481#3contact@194_metal-1-polysilicon-1)	voltage
	36	V(i3#1nmos@37_poly-right)	voltage
	37	V(net@463)	voltage
	38	V(i7#2nmos@38_poly-right)	voltage
	39	V(s0#32nmos@39_poly-right)	voltage
	40	V(net@511#2contact@176_metal-1-polysilicon-1)	voltage
	41	V(s0#36nmos@40_poly-right)	voltage
	42	V(net@470)	voltage
	43	V(net@481)	voltage
	44	V(net@510)	voltage
	45	V(net@466#8nmos@42_poly-right)	voltage
	46	V(net@516)	voltage
	47	V(i1#6nmos@43_poly-right)	voltage
	48	V(net@497)	voltage
	49	V(i5#4nmos@44_poly-right)	voltage
	50	V(s0#27nmos@45_poly-right)	voltage
	51	V(net@466#2contact@203_metal-1-polysilicon-1)	voltage
	52	V(s0#42nmos@46_poly-right)	voltage
	53	V(net@476#2nmos@47_diff-bottom)	voltage
	54	V(net@516#3nmos@47_poly-right)	voltage
	55	V(net@540)	voltage
	56	V(net@464#7nmos@48_poly-right)	voltage
	57	V(net@468)	voltage
	58	V(net@476#7nmos@49_poly-right)	voltage
	59	V(net@595)	voltage
	60	V(net@470#7nmos@50_poly-right)	voltage
	61	V(s1#15nmos@51_poly-right)	voltage
	62	V(net@464#1contact@232_metal-1-polysilicon-1)	voltage
	63	V(s1#18nmos@52_poly-right)	voltage
	64	V(net@613)	voltage
	65	V(net@468#6nmos@53_poly-right)	voltage
	66	V(net@753)	voltage
	67	V(net@745)	voltage
	68	V(net@733)	voltage
	69	V(net@36#7nmos@55_poly-right)	voltage
	70	V(net@731)	voltage
	71	V(net@613#6nmos@56_poly-right)	voltage
	72	V(s2#2nmos@57_poly-right)	voltage
	73	V(net@745#3contact@269_metal-1-polysilicon-1)	voltage
	74	V(s2#5nmos@58_poly-right)	voltage
	75	V(out)	voltage
	76	V(net@733#6nmos@59_poly-right)	voltage
	77	V(net@0)	voltage
	78	V(net@79#2pmos@0_poly-right)	voltage
	79	V(vdd)	voltage
	80	V(i2#2pmos@1_poly-right)	voltage
	81	V(i6#4pmos@2_poly-right)	voltage
	82	V(s0#11pmos@3_poly-right)	voltage
	83	V(s0#18pmos@4_poly-right)	voltage
	84	V(net@93#4pmos@5_poly-right)	voltage
	85	V(net@2)	voltage
	86	V(net@90#2pmos@6_poly-right)	voltage
	87	V(i0#0pmos@7_poly-right)	voltage
	88	V(i4#1pmos@8_poly-right)	voltage
	89	V(s0#6pmos@9_poly-right)	voltage
	90	V(s0#22pmos@10_poly-right)	voltage
	91	V(net@46#8pmos@11_poly-right)	voltage
	92	V(net@5)	voltage
	93	V(net@8#2pmos@12_poly-right)	voltage
	94	V(net@6#10pmos@13_poly-right)	voltage
	95	V(net@7)	voltage
	96	V(s1#0pmos@15_poly-right)	voltage
	97	V(s1#7pmos@16_poly-right)	voltage
	98	V(net@4#6pmos@17_poly-right)	voltage
	99	V(net@462)	voltage
	100	V(net@511#1pmos@36_poly-right)	voltage
	101	V(i3#0pmos@37_poly-right)	voltage
	102	V(i7#3pmos@38_poly-right)	voltage
	103	V(s0#30pmos@39_poly-right)	voltage
	104	V(s0#38pmos@40_poly-right)	voltage
	105	V(net@481#2pmos@41_poly-right)	voltage
	106	V(net@503)	voltage
	107	V(net@466#1pmos@42_poly-right)	voltage
	108	V(i1#5pmos@43_poly-right)	voltage
	109	V(i5#2pmos@44_poly-left)	voltage
	110	V(s0#25pmos@45_poly-right)	voltage
	111	V(s0#44pmos@46_poly-right)	voltage
	112	V(net@516#5pmos@47_poly-right)	voltage
	113	V(net@486)	voltage
	114	V(net@464#8pmos@48_poly-right)	voltage
	115	V(net@476#6pmos@49_poly-right)	voltage
	116	V(net@470#8pmos@50_poly-right)	voltage
	117	V(s1#13pmos@51_poly-right)	voltage
	118	V(s1#20pmos@52_poly-right)	voltage
	119	V(net@468#8pmos@53_poly-right)	voltage
	120	V(net@730)	voltage
	121	V(net@745#2pmos@54_poly-right)	voltage
	122	V(net@36#6pmos@55_poly-right)	voltage
	123	V(net@613#7pmos@56_poly-right)	voltage
	124	V(s2#0pmos@57_poly-right)	voltage
	125	V(s2#7pmos@58_poly-right)	voltage
	126	V(net@733#8pmos@59_poly-right)	voltage
	127	V(s0)	voltage
	128	V(i2)	voltage
	129	V(i6)	voltage
	130	V(i4)	voltage
	131	V(i0)	voltage
	132	V(s1#3contact@66_metal-1-polysilicon-1)	voltage
	133	V(s1)	voltage
	134	V(i3)	voltage
	135	V(i7)	voltage
	136	V(i5)	voltage
	137	V(i1)	voltage
	138	V(s1#16contact@234_metal-1-polysilicon-1)	voltage
	139	V(s2)	voltage
	140	V(i2#5pin@6_polysilicon-1)	voltage
	141	V(i6#2pin@7_polysilicon-1)	voltage
	142	V(net@79#1pin@8_polysilicon-1)	voltage
	143	V(s0#12pin@9_polysilicon-1)	voltage
	144	V(s0#17pin@10_polysilicon-1)	voltage
	145	V(net@93#3pin@12_polysilicon-1)	voltage
	146	V(i0#3pin@21_polysilicon-1)	voltage
	147	V(net@90#1pin@22_polysilicon-1)	voltage
	148	V(s0#7pin@23_polysilicon-1)	voltage
	149	V(net@46#7pin@25_polysilicon-1)	voltage
	150	V(i4#4pin@26_polysilicon-1)	voltage
	151	V(i4#3pin@27_polysilicon-1)	voltage
	152	V(i0#6pin@28_polysilicon-1)	voltage
	153	V(s0#21pin@29_polysilicon-1)	voltage
	154	V(net@6#1pin@36_polysilicon-1)	voltage
	155	V(net@7#1pin@37_polysilicon-1)	voltage
	156	V(net@8#1pin@38_polysilicon-1)	voltage
	157	V(s1#1pin@39_polysilicon-1)	voltage
	158	V(s1#6pin@40_polysilicon-1)	voltage
	159	V(net@7#2pin@41_polysilicon-1)	voltage
	160	V(net@4#5pin@44_polysilicon-1)	voltage
	161	V(net@7#4pin@48_polysilicon-1)	voltage
	162	V(net@6#7pin@54_polysilicon-1)	voltage
	163	V(i2#6pin@116_polysilicon-1)	voltage
	164	V(i3#3pin@125_polysilicon-1)	voltage
	165	V(i7#1pin@126_polysilicon-1)	voltage
	166	V(net@511)	voltage
	167	V(s0#31pin@128_polysilicon-1)	voltage
	168	V(s0#37pin@129_polysilicon-1)	voltage
	169	V(net@481#1pin@131_polysilicon-1)	voltage
	170	V(i1#3pin@140_polysilicon-1)	voltage
	171	V(net@466)	voltage
	172	V(s0#26pin@142_polysilicon-1)	voltage
	173	V(net@516#4pin@144_polysilicon-1)	voltage
	174	V(i5#3pin@145_polysilicon-1)	voltage
	175	V(i5#8pin@146_polysilicon-1)	voltage
	176	V(i1#2pin@147_polysilicon-1)	voltage
	177	V(s0#43pin@148_polysilicon-1)	voltage
	178	V(net@476#1pin@155_polysilicon-1)	voltage
	179	V(net@470#11pin@156_polysilicon-1)	voltage
	180	V(net@464)	voltage
	181	V(s1#14pin@158_polysilicon-1)	voltage
	182	V(s1#19pin@159_polysilicon-1)	voltage
	183	V(net@470#9pin@160_polysilicon-1)	voltage
	184	V(net@468#7pin@163_polysilicon-1)	voltage
	185	V(net@470#2pin@167_polysilicon-1)	voltage
	186	V(net@476)	voltage
	187	V(i3#4pin@179_polysilicon-1)	voltage
	188	V(net@36#9pin@195_polysilicon-1)	voltage
	189	V(net@613#9pin@196_polysilicon-1)	voltage
	190	V(net@745#1pin@197_polysilicon-1)	voltage
	191	V(s2#1pin@198_polysilicon-1)	voltage
	192	V(s2#6pin@199_polysilicon-1)	voltage
	193	V(net@733#7pin@201_polysilicon-1)	voltage
	194	V(net@36#14pin@212_polysilicon-1)	voltage
	195	V(net@36#15pin@219_polysilicon-1)	voltage
	196	V(net@6##0)	voltage
	197	V(net@7##0)	voltage
	198	V(net@8#1pin@38_polysilicon-1##0)	voltage
	199	V(net@8#1pin@38_polysilicon-1##1)	voltage
	200	V(net@8#1pin@38_polysilicon-1##2)	voltage
	201	V(net@8#1pin@38_polysilicon-1##3)	voltage
	202	V(net@8#1pin@38_polysilicon-1##4)	voltage
	203	V(net@8#1pin@38_polysilicon-1##5)	voltage
	204	V(s1#0pmos@15_poly-right##0)	voltage
	205	V(s1#0pmos@15_poly-right##1)	voltage
	206	V(s1#0pmos@15_poly-right##2)	voltage
	207	V(s1#0pmos@15_poly-right##3)	voltage
	208	V(s1#1pin@39_polysilicon-1##0)	voltage
	209	V(s1#1pin@39_polysilicon-1##1)	voltage
	210	V(s1#5nmos@16_poly-right##0)	voltage
	211	V(s1#5nmos@16_poly-right##1)	voltage
	212	V(s1#6pin@40_polysilicon-1##0)	voltage
	213	V(s1#6pin@40_polysilicon-1##1)	voltage
	214	V(s1#6pin@40_polysilicon-1##2)	voltage
	215	V(s1#6pin@40_polysilicon-1##3)	voltage
	216	V(s1#3contact@66_metal-1-polysilicon-1##0)	voltage
	217	V(s1#3contact@66_metal-1-polysilicon-1##1)	voltage
	218	V(i0#0pmos@7_poly-right##0)	voltage
	219	V(i0#0pmos@7_poly-right##1)	voltage
	220	V(i0#0pmos@7_poly-right##2)	voltage
	221	V(i0#0pmos@7_poly-right##3)	voltage
	222	V(i0#0pmos@7_poly-right##4)	voltage
	223	V(i0#0pmos@7_poly-right##5)	voltage
	224	V(net@7#2pin@41_polysilicon-1##0)	voltage
	225	V(net@7#2pin@41_polysilicon-1##1)	voltage
	226	V(net@7#2pin@41_polysilicon-1##2)	voltage
	227	V(net@7#2pin@41_polysilicon-1##3)	voltage
	228	V(net@7#2pin@41_polysilicon-1##4)	voltage
	229	V(net@7#2pin@41_polysilicon-1##5)	voltage
	230	V(net@7#2pin@41_polysilicon-1##6)	voltage
	231	V(net@7#2pin@41_polysilicon-1##7)	voltage
	232	V(net@7#2pin@41_polysilicon-1##8)	voltage
	233	V(i4#0nmos@8_poly-right##0)	voltage
	234	V(i4#0nmos@8_poly-right##1)	voltage
	235	V(i4#0nmos@8_poly-right##2)	voltage
	236	V(i4#0nmos@8_poly-right##3)	voltage
	237	V(i4#0nmos@8_poly-right##4)	voltage
	238	V(i4#0nmos@8_poly-right##5)	voltage
	239	V(net@4#5pin@44_polysilicon-1##0)	voltage
	240	V(net@4#5pin@44_polysilicon-1##1)	voltage
	241	V(net@4#5pin@44_polysilicon-1##2)	voltage
	242	V(net@4#5pin@44_polysilicon-1##3)	voltage
	243	V(net@4#5pin@44_polysilicon-1##4)	voltage
	244	V(net@4#5pin@44_polysilicon-1##5)	voltage
	245	V(i0#1nmos@7_poly-right##0)	voltage
	246	V(net@6#7pin@54_polysilicon-1##0)	voltage
	247	V(net@6#7pin@54_polysilicon-1##1)	voltage
	248	V(net@6#7pin@54_polysilicon-1##2)	voltage
	249	V(net@6#7pin@54_polysilicon-1##3)	voltage
	250	V(net@6#7pin@54_polysilicon-1##4)	voltage
	251	V(net@6#7pin@54_polysilicon-1##5)	voltage
	252	V(net@6#7pin@54_polysilicon-1##6)	voltage
	253	V(net@6#7pin@54_polysilicon-1##7)	voltage
	254	V(net@6#7pin@54_polysilicon-1##8)	voltage
	255	V(i4##0)	voltage
	256	V(i4##1)	voltage
	257	V(i4##2)	voltage
	258	V(i4##3)	voltage
	259	V(i4##4)	voltage
	260	V(i4##5)	voltage
	261	V(i4##6)	voltage
	262	V(i4##7)	voltage
	263	V(i4#4pin@26_polysilicon-1##0)	voltage
	264	V(i4#4pin@26_polysilicon-1##1)	voltage
	265	V(i4#4pin@26_polysilicon-1##2)	voltage
	266	V(i4#4pin@26_polysilicon-1##3)	voltage
	267	V(i4#4pin@26_polysilicon-1##4)	voltage
	268	V(i4#4pin@26_polysilicon-1##5)	voltage
	269	V(i4#4pin@26_polysilicon-1##6)	voltage
	270	V(i4#4pin@26_polysilicon-1##7)	voltage
	271	V(i4#4pin@26_polysilicon-1##8)	voltage
	272	V(i4#4pin@26_polysilicon-1##9)	voltage
	273	V(i4#4pin@26_polysilicon-1##10)	voltage
	274	V(i4#4pin@26_polysilicon-1##11)	voltage
	275	V(i4#4pin@26_polysilicon-1##12)	voltage
	276	V(i4#4pin@26_polysilicon-1##13)	voltage
	277	V(i4#4pin@26_polysilicon-1##14)	voltage
	278	V(i4#4pin@26_polysilicon-1##15)	voltage
	279	V(i4#4pin@26_polysilicon-1##16)	voltage
	280	V(i4#4pin@26_polysilicon-1##17)	voltage
	281	V(i4#4pin@26_polysilicon-1##18)	voltage
	282	V(i4#4pin@26_polysilicon-1##19)	voltage
	283	V(i4#4pin@26_polysilicon-1##20)	voltage
	284	V(i4#4pin@26_polysilicon-1##21)	voltage
	285	V(i4#4pin@26_polysilicon-1##22)	voltage
	286	V(i4#4pin@26_polysilicon-1##23)	voltage
	287	V(i4#4pin@26_polysilicon-1##24)	voltage
	288	V(i4#4pin@26_polysilicon-1##25)	voltage
	289	V(net@90#1pin@22_polysilicon-1##0)	voltage
	290	V(net@90#1pin@22_polysilicon-1##1)	voltage
	291	V(net@90#1pin@22_polysilicon-1##2)	voltage
	292	V(net@90#1pin@22_polysilicon-1##3)	voltage
	293	V(net@90#1pin@22_polysilicon-1##4)	voltage
	294	V(net@90#1pin@22_polysilicon-1##5)	voltage
	295	V(net@7#4pin@48_polysilicon-1##0)	voltage
	296	V(net@7#4pin@48_polysilicon-1##1)	voltage
	297	V(net@7#4pin@48_polysilicon-1##2)	voltage
	298	V(i6##0)	voltage
	299	V(i6##1)	voltage
	300	V(i6##2)	voltage
	301	V(i6##3)	voltage
	302	V(i6##4)	voltage
	303	V(i6##5)	voltage
	304	V(i6##6)	voltage
	305	V(i6##7)	voltage
	306	V(i6##8)	voltage
	307	V(i6##9)	voltage
	308	V(i6##10)	voltage
	309	V(i6##11)	voltage
	310	V(i6##12)	voltage
	311	V(i6##13)	voltage
	312	V(i6##14)	voltage
	313	V(i0#6pin@28_polysilicon-1##0)	voltage
	314	V(i0#6pin@28_polysilicon-1##1)	voltage
	315	V(i0#6pin@28_polysilicon-1##2)	voltage
	316	V(i0#6pin@28_polysilicon-1##3)	voltage
	317	V(i0#6pin@28_polysilicon-1##4)	voltage
	318	V(i0#6pin@28_polysilicon-1##5)	voltage
	319	V(i0#6pin@28_polysilicon-1##6)	voltage
	320	V(i0#6pin@28_polysilicon-1##7)	voltage
	321	V(i0#6pin@28_polysilicon-1##8)	voltage
	322	V(i0#6pin@28_polysilicon-1##9)	voltage
	323	V(i0#6pin@28_polysilicon-1##10)	voltage
	324	V(i0#6pin@28_polysilicon-1##11)	voltage
	325	V(i0#6pin@28_polysilicon-1##12)	voltage
	326	V(i0#6pin@28_polysilicon-1##13)	voltage
	327	V(i0#6pin@28_polysilicon-1##14)	voltage
	328	V(i0#6pin@28_polysilicon-1##15)	voltage
	329	V(i0#6pin@28_polysilicon-1##16)	voltage
	330	V(i0#6pin@28_polysilicon-1##17)	voltage
	331	V(i0#6pin@28_polysilicon-1##18)	voltage
	332	V(i0#6pin@28_polysilicon-1##19)	voltage
	333	V(i0#6pin@28_polysilicon-1##20)	voltage
	334	V(i0#6pin@28_polysilicon-1##21)	voltage
	335	V(i0#6pin@28_polysilicon-1##22)	voltage
	336	V(i0#6pin@28_polysilicon-1##23)	voltage
	337	V(net@6#7pin@54_polysilicon-1##9)	voltage
	338	V(net@6#7pin@54_polysilicon-1##10)	voltage
	339	V(net@6#7pin@54_polysilicon-1##11)	voltage
	340	V(net@6#7pin@54_polysilicon-1##12)	voltage
	341	V(net@6#7pin@54_polysilicon-1##13)	voltage
	342	V(net@6#7pin@54_polysilicon-1##14)	voltage
	343	V(i2#2pmos@1_poly-right##0)	voltage
	344	V(i2#2pmos@1_poly-right##1)	voltage
	345	V(i2#2pmos@1_poly-right##2)	voltage
	346	V(i2#2pmos@1_poly-right##3)	voltage
	347	V(i2#2pmos@1_poly-right##4)	voltage
	348	V(i2#2pmos@1_poly-right##5)	voltage
	349	V(net@93#3pin@12_polysilicon-1##0)	voltage
	350	V(net@93#3pin@12_polysilicon-1##1)	voltage
	351	V(net@93#3pin@12_polysilicon-1##2)	voltage
	352	V(net@93#3pin@12_polysilicon-1##3)	voltage
	353	V(net@93#3pin@12_polysilicon-1##4)	voltage
	354	V(net@93#3pin@12_polysilicon-1##5)	voltage
	355	V(s0#6pmos@9_poly-right##0)	voltage
	356	V(s0#6pmos@9_poly-right##1)	voltage
	357	V(s0#6pmos@9_poly-right##2)	voltage
	358	V(s0#7pin@23_polysilicon-1##0)	voltage
	359	V(s0#7pin@23_polysilicon-1##1)	voltage
	360	V(net@79#1pin@8_polysilicon-1##0)	voltage
	361	V(net@79#1pin@8_polysilicon-1##1)	voltage
	362	V(net@79#1pin@8_polysilicon-1##2)	voltage
	363	V(net@79#1pin@8_polysilicon-1##3)	voltage
	364	V(net@79#1pin@8_polysilicon-1##4)	voltage
	365	V(net@79#1pin@8_polysilicon-1##5)	voltage
	366	V(i6#3nmos@2_poly-right##0)	voltage
	367	V(i6#3nmos@2_poly-right##1)	voltage
	368	V(i6#3nmos@2_poly-right##2)	voltage
	369	V(i6#3nmos@2_poly-right##3)	voltage
	370	V(i6#3nmos@2_poly-right##4)	voltage
	371	V(i6#3nmos@2_poly-right##5)	voltage
	372	V(s0#12pin@9_polysilicon-1##0)	voltage
	373	V(s0#12pin@9_polysilicon-1##1)	voltage
	374	V(s0#12pin@9_polysilicon-1##2)	voltage
	375	V(s0#12pin@9_polysilicon-1##3)	voltage
	376	V(s0#12pin@9_polysilicon-1##4)	voltage
	377	V(s0#12pin@9_polysilicon-1##5)	voltage
	378	V(net@46#7pin@25_polysilicon-1##0)	voltage
	379	V(net@46#7pin@25_polysilicon-1##1)	voltage
	380	V(net@46#7pin@25_polysilicon-1##2)	voltage
	381	V(net@46#7pin@25_polysilicon-1##3)	voltage
	382	V(net@46#7pin@25_polysilicon-1##4)	voltage
	383	V(net@46#7pin@25_polysilicon-1##5)	voltage
	384	V(i2#3nmos@1_poly-right##0)	voltage
	385	V(s0#16nmos@4_poly-right##0)	voltage
	386	V(s0#16nmos@4_poly-right##1)	voltage
	387	V(s0#16nmos@4_poly-right##2)	voltage
	388	V(s0#16nmos@4_poly-right##3)	voltage
	389	V(s0#16nmos@4_poly-right##4)	voltage
	390	V(s0#16nmos@4_poly-right##5)	voltage
	391	V(i4#1pmos@8_poly-right##0)	voltage
	392	V(s0##0)	voltage
	393	V(s0##1)	voltage
	394	V(s0##2)	voltage
	395	V(i6#4pmos@2_poly-right##0)	voltage
	396	V(s0#20nmos@10_poly-right##0)	voltage
	397	V(s0#20nmos@10_poly-right##1)	voltage
	398	V(s0#21pin@29_polysilicon-1##0)	voltage
	399	V(s0#21pin@29_polysilicon-1##1)	voltage
	400	V(s0#21pin@29_polysilicon-1##2)	voltage
	401	V(net@6#10pmos@13_poly-right##0)	voltage
	402	V(net@6#10pmos@13_poly-right##1)	voltage
	403	V(net@6#10pmos@13_poly-right##2)	voltage
	404	V(net@6#10pmos@13_poly-right##3)	voltage
	405	V(net@6#10pmos@13_poly-right##4)	voltage
	406	V(net@6#10pmos@13_poly-right##5)	voltage
	407	V(net@7#14nmos@14_poly-right##0)	voltage
	408	V(net@7#14nmos@14_poly-right##1)	voltage
	409	V(net@7#14nmos@14_poly-right##2)	voltage
	410	V(net@7#14nmos@14_poly-right##3)	voltage
	411	V(net@7#14nmos@14_poly-right##4)	voltage
	412	V(net@7#14nmos@14_poly-right##5)	voltage
	413	V(i2#5pin@6_polysilicon-1##0)	voltage
	414	V(i2#5pin@6_polysilicon-1##1)	voltage
	415	V(i2#5pin@6_polysilicon-1##2)	voltage
	416	V(i2#5pin@6_polysilicon-1##3)	voltage
	417	V(i2#5pin@6_polysilicon-1##4)	voltage
	418	V(i2#5pin@6_polysilicon-1##5)	voltage
	419	V(i2#5pin@6_polysilicon-1##6)	voltage
	420	V(i2#5pin@6_polysilicon-1##7)	voltage
	421	V(i2#5pin@6_polysilicon-1##8)	voltage
	422	V(i2#5pin@6_polysilicon-1##9)	voltage
	423	V(i2#5pin@6_polysilicon-1##10)	voltage
	424	V(i2#5pin@6_polysilicon-1##11)	voltage
	425	V(i2#5pin@6_polysilicon-1##12)	voltage
	426	V(net@464##0)	voltage
	427	V(net@464##1)	voltage
	428	V(net@464##2)	voltage
	429	V(net@466##0)	voltage
	430	V(net@466##1)	voltage
	431	V(net@466##2)	voltage
	432	V(net@466##3)	voltage
	433	V(net@466##4)	voltage
	434	V(net@466##5)	voltage
	435	V(net@470#2pin@167_polysilicon-1##0)	voltage
	436	V(net@470#2pin@167_polysilicon-1##1)	voltage
	437	V(net@470#2pin@167_polysilicon-1##2)	voltage
	438	V(i7##0)	voltage
	439	V(i7##1)	voltage
	440	V(i7##2)	voltage
	441	V(i7##3)	voltage
	442	V(i7##4)	voltage
	443	V(i7##5)	voltage
	444	V(i7##6)	voltage
	445	V(i7##7)	voltage
	446	V(i7##8)	voltage
	447	V(i7##9)	voltage
	448	V(i7##10)	voltage
	449	V(i7##11)	voltage
	450	V(i7##12)	voltage
	451	V(i7##13)	voltage
	452	V(i7##14)	voltage
	453	V(i1#2pin@147_polysilicon-1##0)	voltage
	454	V(i1#2pin@147_polysilicon-1##1)	voltage
	455	V(i1#2pin@147_polysilicon-1##2)	voltage
	456	V(i1#2pin@147_polysilicon-1##3)	voltage
	457	V(i1#2pin@147_polysilicon-1##4)	voltage
	458	V(i1#2pin@147_polysilicon-1##5)	voltage
	459	V(i1#2pin@147_polysilicon-1##6)	voltage
	460	V(i1#2pin@147_polysilicon-1##7)	voltage
	461	V(i1#2pin@147_polysilicon-1##8)	voltage
	462	V(i1#2pin@147_polysilicon-1##9)	voltage
	463	V(i1#2pin@147_polysilicon-1##10)	voltage
	464	V(i1#2pin@147_polysilicon-1##11)	voltage
	465	V(i1#2pin@147_polysilicon-1##12)	voltage
	466	V(i1#2pin@147_polysilicon-1##13)	voltage
	467	V(i1#2pin@147_polysilicon-1##14)	voltage
	468	V(i1#2pin@147_polysilicon-1##15)	voltage
	469	V(i1#2pin@147_polysilicon-1##16)	voltage
	470	V(i1#2pin@147_polysilicon-1##17)	voltage
	471	V(i1#2pin@147_polysilicon-1##18)	voltage
	472	V(i1#2pin@147_polysilicon-1##19)	voltage
	473	V(i1#2pin@147_polysilicon-1##20)	voltage
	474	V(i1#2pin@147_polysilicon-1##21)	voltage
	475	V(i1#2pin@147_polysilicon-1##22)	voltage
	476	V(i1#2pin@147_polysilicon-1##23)	voltage
	477	V(s1#13pmos@51_poly-right##0)	voltage
	478	V(s1#13pmos@51_poly-right##1)	voltage
	479	V(s1#13pmos@51_poly-right##2)	voltage
	480	V(s1#13pmos@51_poly-right##3)	voltage
	481	V(net@476##0)	voltage
	482	V(net@476##1)	voltage
	483	V(net@476##2)	voltage
	484	V(net@476##3)	voltage
	485	V(net@476##4)	voltage
	486	V(net@476##5)	voltage
	487	V(net@476##6)	voltage
	488	V(net@476##7)	voltage
	489	V(net@476##8)	voltage
	490	V(net@476##9)	voltage
	491	V(net@476##10)	voltage
	492	V(net@476##11)	voltage
	493	V(net@476##12)	voltage
	494	V(net@476##13)	voltage
	495	V(net@476##14)	voltage
	496	V(i3#0pmos@37_poly-right##0)	voltage
	497	V(i3#0pmos@37_poly-right##1)	voltage
	498	V(i3#0pmos@37_poly-right##2)	voltage
	499	V(i3#0pmos@37_poly-right##3)	voltage
	500	V(i3#0pmos@37_poly-right##4)	voltage
	501	V(i3#0pmos@37_poly-right##5)	voltage
	502	V(net@481#1pin@131_polysilicon-1##0)	voltage
	503	V(net@481#1pin@131_polysilicon-1##1)	voltage
	504	V(net@481#1pin@131_polysilicon-1##2)	voltage
	505	V(net@481#1pin@131_polysilicon-1##3)	voltage
	506	V(net@481#1pin@131_polysilicon-1##4)	voltage
	507	V(net@481#1pin@131_polysilicon-1##5)	voltage
	508	V(s0#25pmos@45_poly-right##0)	voltage
	509	V(s0#25pmos@45_poly-right##1)	voltage
	510	V(s0#25pmos@45_poly-right##2)	voltage
	511	V(s0#26pin@142_polysilicon-1##0)	voltage
	512	V(s0#26pin@142_polysilicon-1##1)	voltage
	513	V(s1#14pin@158_polysilicon-1##0)	voltage
	514	V(s1#14pin@158_polysilicon-1##1)	voltage
	515	V(net@511##0)	voltage
	516	V(net@511##1)	voltage
	517	V(net@511##2)	voltage
	518	V(net@511##3)	voltage
	519	V(net@511##4)	voltage
	520	V(net@511##5)	voltage
	521	V(i7#2nmos@38_poly-right##0)	voltage
	522	V(i7#2nmos@38_poly-right##1)	voltage
	523	V(i7#2nmos@38_poly-right##2)	voltage
	524	V(i7#2nmos@38_poly-right##3)	voltage
	525	V(i7#2nmos@38_poly-right##4)	voltage
	526	V(i7#2nmos@38_poly-right##5)	voltage
	527	V(s0#31pin@128_polysilicon-1##0)	voltage
	528	V(s0#31pin@128_polysilicon-1##1)	voltage
	529	V(s0#31pin@128_polysilicon-1##2)	voltage
	530	V(s0#31pin@128_polysilicon-1##3)	voltage
	531	V(s0#31pin@128_polysilicon-1##4)	voltage
	532	V(s0#31pin@128_polysilicon-1##5)	voltage
	533	V(net@516#4pin@144_polysilicon-1##0)	voltage
	534	V(net@516#4pin@144_polysilicon-1##1)	voltage
	535	V(net@516#4pin@144_polysilicon-1##2)	voltage
	536	V(net@516#4pin@144_polysilicon-1##3)	voltage
	537	V(net@516#4pin@144_polysilicon-1##4)	voltage
	538	V(net@516#4pin@144_polysilicon-1##5)	voltage
	539	V(i3#1nmos@37_poly-right##0)	voltage
	540	V(s1#18nmos@52_poly-right##0)	voltage
	541	V(s1#18nmos@52_poly-right##1)	voltage
	542	V(s1#19pin@159_polysilicon-1##0)	voltage
	543	V(s1#19pin@159_polysilicon-1##1)	voltage
	544	V(s1#19pin@159_polysilicon-1##2)	voltage
	545	V(s1#19pin@159_polysilicon-1##3)	voltage
	546	V(s0#36nmos@40_poly-right##0)	voltage
	547	V(s0#36nmos@40_poly-right##1)	voltage
	548	V(s0#36nmos@40_poly-right##2)	voltage
	549	V(s0#36nmos@40_poly-right##3)	voltage
	550	V(s0#36nmos@40_poly-right##4)	voltage
	551	V(s0#36nmos@40_poly-right##5)	voltage
	552	V(i5#2pmos@44_poly-left##0)	voltage
	553	V(s1#16contact@234_metal-1-polysilicon-1##0)	voltage
	554	V(s1#16contact@234_metal-1-polysilicon-1##1)	voltage
	555	V(i7#3pmos@38_poly-right##0)	voltage
	556	V(s0#42nmos@46_poly-right##0)	voltage
	557	V(s0#42nmos@46_poly-right##1)	voltage
	558	V(s0#43pin@148_polysilicon-1##0)	voltage
	559	V(s0#43pin@148_polysilicon-1##1)	voltage
	560	V(s0#43pin@148_polysilicon-1##2)	voltage
	561	V(net@476#6pmos@49_poly-right##0)	voltage
	562	V(net@476#6pmos@49_poly-right##1)	voltage
	563	V(net@476#6pmos@49_poly-right##2)	voltage
	564	V(net@476#6pmos@49_poly-right##3)	voltage
	565	V(net@476#6pmos@49_poly-right##4)	voltage
	566	V(net@476#6pmos@49_poly-right##5)	voltage
	567	V(net@470#7nmos@50_poly-right##0)	voltage
	568	V(net@470#7nmos@50_poly-right##1)	voltage
	569	V(net@470#7nmos@50_poly-right##2)	voltage
	570	V(net@470#7nmos@50_poly-right##3)	voltage
	571	V(net@470#7nmos@50_poly-right##4)	voltage
	572	V(net@470#7nmos@50_poly-right##5)	voltage
	573	V(i1#5pmos@43_poly-right##0)	voltage
	574	V(i1#5pmos@43_poly-right##1)	voltage
	575	V(i1#5pmos@43_poly-right##2)	voltage
	576	V(i1#5pmos@43_poly-right##3)	voltage
	577	V(i1#5pmos@43_poly-right##4)	voltage
	578	V(i1#5pmos@43_poly-right##5)	voltage
	579	V(net@470#9pin@160_polysilicon-1##0)	voltage
	580	V(net@470#9pin@160_polysilicon-1##1)	voltage
	581	V(net@470#9pin@160_polysilicon-1##2)	voltage
	582	V(net@470#9pin@160_polysilicon-1##3)	voltage
	583	V(net@470#9pin@160_polysilicon-1##4)	voltage
	584	V(net@470#9pin@160_polysilicon-1##5)	voltage
	585	V(net@470#9pin@160_polysilicon-1##6)	voltage
	586	V(net@470#9pin@160_polysilicon-1##7)	voltage
	587	V(net@470#9pin@160_polysilicon-1##8)	voltage
	588	V(i5#4nmos@44_poly-right##0)	voltage
	589	V(i5#4nmos@44_poly-right##1)	voltage
	590	V(i5#4nmos@44_poly-right##2)	voltage
	591	V(i5#4nmos@44_poly-right##3)	voltage
	592	V(i5#4nmos@44_poly-right##4)	voltage
	593	V(i5#4nmos@44_poly-right##5)	voltage
	594	V(net@468#7pin@163_polysilicon-1##0)	voltage
	595	V(net@468#7pin@163_polysilicon-1##1)	voltage
	596	V(net@468#7pin@163_polysilicon-1##2)	voltage
	597	V(net@468#7pin@163_polysilicon-1##3)	voltage
	598	V(net@468#7pin@163_polysilicon-1##4)	voltage
	599	V(net@468#7pin@163_polysilicon-1##5)	voltage
	600	V(i3#3pin@125_polysilicon-1##0)	voltage
	601	V(i3#3pin@125_polysilicon-1##1)	voltage
	602	V(i3#3pin@125_polysilicon-1##2)	voltage
	603	V(i3#3pin@125_polysilicon-1##3)	voltage
	604	V(i3#3pin@125_polysilicon-1##4)	voltage
	605	V(i3#3pin@125_polysilicon-1##5)	voltage
	606	V(i3#3pin@125_polysilicon-1##6)	voltage
	607	V(i3#3pin@125_polysilicon-1##7)	voltage
	608	V(i3#3pin@125_polysilicon-1##8)	voltage
	609	V(i3#3pin@125_polysilicon-1##9)	voltage
	610	V(i3#3pin@125_polysilicon-1##10)	voltage
	611	V(i3#3pin@125_polysilicon-1##11)	voltage
	612	V(i3#3pin@125_polysilicon-1##12)	voltage
	613	V(net@476#7nmos@49_poly-right##0)	voltage
	614	V(i1#6nmos@43_poly-right##0)	voltage
	615	V(net@470#8pmos@50_poly-right##0)	voltage
	616	V(net@464##3)	voltage
	617	V(net@464##4)	voltage
	618	V(net@464##5)	voltage
	619	V(i5##0)	voltage
	620	V(i5##1)	voltage
	621	V(i5##2)	voltage
	622	V(i5##3)	voltage
	623	V(i5##4)	voltage
	624	V(i5##5)	voltage
	625	V(i5##6)	voltage
	626	V(i5##7)	voltage
	627	V(i5#3pin@145_polysilicon-1##0)	voltage
	628	V(i5#3pin@145_polysilicon-1##1)	voltage
	629	V(i5#3pin@145_polysilicon-1##2)	voltage
	630	V(i5#3pin@145_polysilicon-1##3)	voltage
	631	V(i5#3pin@145_polysilicon-1##4)	voltage
	632	V(i5#3pin@145_polysilicon-1##5)	voltage
	633	V(i5#3pin@145_polysilicon-1##6)	voltage
	634	V(i5#3pin@145_polysilicon-1##7)	voltage
	635	V(i5#3pin@145_polysilicon-1##8)	voltage
	636	V(i5#3pin@145_polysilicon-1##9)	voltage
	637	V(i5#3pin@145_polysilicon-1##10)	voltage
	638	V(i5#3pin@145_polysilicon-1##11)	voltage
	639	V(i5#3pin@145_polysilicon-1##12)	voltage
	640	V(i5#3pin@145_polysilicon-1##13)	voltage
	641	V(i5#3pin@145_polysilicon-1##14)	voltage
	642	V(i5#3pin@145_polysilicon-1##15)	voltage
	643	V(i5#3pin@145_polysilicon-1##16)	voltage
	644	V(i5#3pin@145_polysilicon-1##17)	voltage
	645	V(i5#3pin@145_polysilicon-1##18)	voltage
	646	V(i5#3pin@145_polysilicon-1##19)	voltage
	647	V(i5#3pin@145_polysilicon-1##20)	voltage
	648	V(i5#3pin@145_polysilicon-1##21)	voltage
	649	V(i5#3pin@145_polysilicon-1##22)	voltage
	650	V(i5#3pin@145_polysilicon-1##23)	voltage
	651	V(i5#3pin@145_polysilicon-1##24)	voltage
	652	V(i5#3pin@145_polysilicon-1##25)	voltage
	653	V(net@36#6pmos@55_poly-right##0)	voltage
	654	V(net@36#6pmos@55_poly-right##1)	voltage
	655	V(net@36#6pmos@55_poly-right##2)	voltage
	656	V(net@613#6nmos@56_poly-right##0)	voltage
	657	V(net@613#6nmos@56_poly-right##1)	voltage
	658	V(net@613#6nmos@56_poly-right##2)	voltage
	659	V(net@36#7nmos@55_poly-right##0)	voltage
	660	V(net@613#7pmos@56_poly-right##0)	voltage
	661	V(net@745#1pin@197_polysilicon-1##0)	voltage
	662	V(net@745#1pin@197_polysilicon-1##1)	voltage
	663	V(net@745#1pin@197_polysilicon-1##2)	voltage
	664	V(s2#1pin@198_polysilicon-1##0)	voltage
	665	V(s2#1pin@198_polysilicon-1##1)	voltage
	666	V(s2#1pin@198_polysilicon-1##2)	voltage
	667	V(s2#5nmos@58_poly-right##0)	voltage
	668	V(s2#5nmos@58_poly-right##1)	voltage
	669	V(s2##0)	voltage
	670	V(s2##1)	voltage
	671	V(s2##2)	voltage
	672	V(net@733#7pin@201_polysilicon-1##0)	voltage
	673	V(net@733#7pin@201_polysilicon-1##1)	voltage
	674	V(net@733#7pin@201_polysilicon-1##2)	voltage
	675	V(net@36#9pin@195_polysilicon-1##0)	voltage
	676	V(net@36#9pin@195_polysilicon-1##1)	voltage
	677	V(net@36#9pin@195_polysilicon-1##2)	voltage
	678	V(net@36#9pin@195_polysilicon-1##3)	voltage
	679	V(net@36#9pin@195_polysilicon-1##4)	voltage
	680	V(net@36#9pin@195_polysilicon-1##5)	voltage
	681	V(net@36#9pin@195_polysilicon-1##6)	voltage
	682	V(net@36#9pin@195_polysilicon-1##7)	voltage
	683	V(net@36#9pin@195_polysilicon-1##8)	voltage
	684	V(net@36#9pin@195_polysilicon-1##9)	voltage
	685	V(net@36#9pin@195_polysilicon-1##10)	voltage
	686	V(net@36#9pin@195_polysilicon-1##11)	voltage
	687	V(net@36#9pin@195_polysilicon-1##12)	voltage
	688	V(net@36#9pin@195_polysilicon-1##13)	voltage
	689	V(net@36#9pin@195_polysilicon-1##14)	voltage
	690	V(net@36#9pin@195_polysilicon-1##15)	voltage
	691	V(net@36#9pin@195_polysilicon-1##16)	voltage
	692	V(net@36#15pin@219_polysilicon-1##0)	voltage
	693	V(net@36#15pin@219_polysilicon-1##1)	voltage
	694	V(net@36#15pin@219_polysilicon-1##2)	voltage
	695	V(net@36#15pin@219_polysilicon-1##3)	voltage
	696	V(net@36#15pin@219_polysilicon-1##4)	voltage
	697	V(net@36#15pin@219_polysilicon-1##5)	voltage
	698	V(net@36#15pin@219_polysilicon-1##6)	voltage
	699	V(net@36#15pin@219_polysilicon-1##7)	voltage
	700	V(net@36#15pin@219_polysilicon-1##8)	voltage
	701	V(net@36#15pin@219_polysilicon-1##9)	voltage
	702	V(net@36#15pin@219_polysilicon-1##10)	voltage
	703	V(net@36#15pin@219_polysilicon-1##11)	voltage
	704	V(net@36#15pin@219_polysilicon-1##12)	voltage
	705	V(net@36#15pin@219_polysilicon-1##13)	voltage
	706	V(net@36#15pin@219_polysilicon-1##14)	voltage
	707	V(net@36#15pin@219_polysilicon-1##15)	voltage
	708	V(net@36#15pin@219_polysilicon-1##16)	voltage
	709	V(net@36#15pin@219_polysilicon-1##17)	voltage
	710	V(net@36#15pin@219_polysilicon-1##18)	voltage
	711	V(net@36#15pin@219_polysilicon-1##19)	voltage
	712	V(net@36#15pin@219_polysilicon-1##20)	voltage
	713	V(net@36#15pin@219_polysilicon-1##21)	voltage
	714	V(net@36#15pin@219_polysilicon-1##22)	voltage
	715	V(net@36#15pin@219_polysilicon-1##23)	voltage
	716	V(net@36#15pin@219_polysilicon-1##24)	voltage
	717	V(net@36#15pin@219_polysilicon-1##25)	voltage
	718	V(net@36#15pin@219_polysilicon-1##26)	voltage
	719	V(net@36#15pin@219_polysilicon-1##27)	voltage
	720	V(net@36#15pin@219_polysilicon-1##28)	voltage
	721	V(net@36#15pin@219_polysilicon-1##29)	voltage
	722	V(net@613##0)	voltage
	723	V(net@613##1)	voltage
	724	V(net@613##2)	voltage
	725	V(net@613##3)	voltage
	726	V(net@613##4)	voltage
	727	V(net@613##5)	voltage
	728	V(net@613##6)	voltage
	729	V(net@613##7)	voltage
	730	V(net@613##8)	voltage