Title: *** SPICE deck for cell Eight_bit_adder{lay} from library Proj2
Date: Wed Mar 18 21:30:25 2020
Plotname: Operating Point
Flags: real
No. Variables: 3187
No. Points:            1
Offset:   0.0000000000000000e+000
Command: Linear Technology Corporation LTspice IV
Variables:
	0	V(net@676#2contact@256_metal-1-polysilicon-1)	voltage
	1	V(a0#15nmos@40_poly-right)	voltage
	2	V(net@560)	voltage
	3	V(net@817)	voltage
	4	V(net@562#11nmos@41_poly-right)	voltage
	5	V(b0#16nmos@42_poly-left)	voltage
	6	V(net@684#9nmos@43_poly-left)	voltage
	7	V(net@684#2contact@231_metal-1-metal-2)	voltage
	8	V(b0#9nmos@44_poly-right)	voltage
	9	V(net@562#2pin@166_metal-1)	voltage
	10	V(a0#14nmos@45_poly-right)	voltage
	11	V(xor1_to_nand1#1contact@309_metal-1-metal-2)	voltage
	12	V(net@676#4nmos@46_poly-right)	voltage
	13	V(net@576#2contact@295_metal-1-polysilicon-1)	voltage
	14	V(xor1_to_nand1#26nmos@47_poly-right)	voltage
	15	V(net@566)	voltage
	16	V(net@638)	voltage
	17	V(net@564#11nmos@48_poly-right)	voltage
	18	V(cin#9nmos@49_poly-left)	voltage
	19	V(net@577#9nmos@50_poly-left)	voltage
	20	V(net@577#2contact@270_metal-1-metal-2)	voltage
	21	V(cin#5nmos@51_poly-right)	voltage
	22	V(net@564#2pin@192_metal-1)	voltage
	23	V(xor1_to_nand1#24nmos@52_poly-right)	voltage
	24	V(sum0)	voltage
	25	V(net@576#4nmos@53_poly-right)	voltage
	26	V(net@674)	voltage
	27	V(xor1_to_nand1#27nmos@54_poly-right)	voltage
	28	V(nand1_to_nand3#4nmos@55_diff-bottom)	voltage
	29	V(cin#16nmos@55_poly-right)	voltage
	30	V(net@706)	voltage
	31	V(a0#17nmos@56_poly-right)	voltage
	32	V(nand2_to_nand3#4nmos@57_diff-bottom)	voltage
	33	V(b0#13nmos@57_poly-right)	voltage
	34	V(net@737)	voltage
	35	V(nand2_to_nand3#11nmos@58_poly-right)	voltage
	36	V(cout#2nmos@59_diff-bottom)	voltage
	37	V(nand1_to_nand3#14nmos@59_poly-right)	voltage
	38	V(vdd)	voltage
	39	V(a0#10pmos@40_poly-left)	voltage
	40	V(net@800)	voltage
	41	V(net@562#7pmos@41_poly-left)	voltage
	42	V(net@676)	voltage
	43	V(b0#18pmos@42_poly-right)	voltage
	44	V(net@684#14pmos@43_poly-right)	voltage
	45	V(b0#17pmos@44_poly-right)	voltage
	46	V(net@684)	voltage
	47	V(a0#3pmos@45_poly-right)	voltage
	48	V(net@562#5pmos@45_diff-top)	voltage
	49	V(net@676#12pmos@46_poly-right)	voltage
	50	V(xor1_to_nand1#22pmos@46_diff-top)	voltage
	51	V(xor1_to_nand1#9pmos@47_poly-left)	voltage
	52	V(net@621)	voltage
	53	V(net@564#7pmos@48_poly-left)	voltage
	54	V(net@576)	voltage
	55	V(cin#18pmos@49_poly-right)	voltage
	56	V(net@577#14pmos@50_poly-right)	voltage
	57	V(cin#17pmos@51_poly-right)	voltage
	58	V(net@577)	voltage
	59	V(xor1_to_nand1#4pmos@52_poly-right)	voltage
	60	V(net@564#5pmos@52_diff-top)	voltage
	61	V(net@576#12pmos@53_poly-right)	voltage
	62	V(sum0#4pmos@53_diff-top)	voltage
	63	V(xor1_to_nand1#16pmos@54_poly-right)	voltage
	64	V(nand1_to_nand3)	voltage
	65	V(cin#20pmos@55_poly-right)	voltage
	66	V(a0#9pmos@56_poly-right)	voltage
	67	V(nand2_to_nand3)	voltage
	68	V(b0#20pmos@57_poly-right)	voltage
	69	V(nand2_to_nand3#10pmos@58_poly-right)	voltage
	70	V(cout)	voltage
	71	V(nand1_to_nand3#11pmos@59_poly-right)	voltage
	72	V(b0)	voltage
	73	V(a0)	voltage
	74	V(cin#0pin@206_metal-2)	voltage
	75	V(cin)	voltage
	76	V(xor1_to_nand1)	voltage
	77	V(cin#11contact@308_metal-1-metal-2)	voltage
	78	V(a0#0contact@317_metal-1-metal-2)	voltage
	79	V(b0#0contact@318_metal-1-metal-2)	voltage
	80	V(net@562)	voltage
	81	V(b0#14pin@157_polysilicon-1)	voltage
	82	V(a0#11pin@164_polysilicon-1)	voltage
	83	V(a0#13pin@165_polysilicon-1)	voltage
	84	V(b0#10pin@167_polysilicon-1)	voltage
	85	V(net@676#5pin@169_polysilicon-1)	voltage
	86	V(b0#15pin@174_polysilicon-1)	voltage
	87	V(net@562#1pin@176_polysilicon-1)	voltage
	88	V(a0#2pin@177_polysilicon-1)	voltage
	89	V(net@564)	voltage
	90	V(cin#7pin@183_polysilicon-1)	voltage
	91	V(xor1_to_nand1#10pin@190_polysilicon-1)	voltage
	92	V(xor1_to_nand1#12pin@191_polysilicon-1)	voltage
	93	V(cin#6pin@193_polysilicon-1)	voltage
	94	V(net@576#5pin@195_polysilicon-1)	voltage
	95	V(cin#8pin@200_polysilicon-1)	voltage
	96	V(net@564#1pin@202_polysilicon-1)	voltage
	97	V(xor1_to_nand1#3pin@203_polysilicon-1)	voltage
	98	V(xor1_to_nand1#14pin@207_polysilicon-1)	voltage
	99	V(cin#14pin@212_polysilicon-1)	voltage
	100	V(a0#8pin@215_polysilicon-1)	voltage
	101	V(b0#8pin@220_polysilicon-1)	voltage
	102	V(nand2_to_nand3#9pin@224_polysilicon-1)	voltage
	103	V(nand1_to_nand3#12pin@229_polysilicon-1)	voltage
	104	V(b0#0contact@318_metal-1-metal-2##0)	voltage
	105	V(net@562##0)	voltage
	106	V(net@562##1)	voltage
	107	V(net@562##2)	voltage
	108	V(net@562##3)	voltage
	109	V(net@562##4)	voltage
	110	V(net@562##5)	voltage
	111	V(net@562##6)	voltage
	112	V(net@562##7)	voltage
	113	V(net@562##8)	voltage
	114	V(net@562##9)	voltage
	115	V(net@562##10)	voltage
	116	V(net@562##11)	voltage
	117	V(net@562##12)	voltage
	118	V(net@562##13)	voltage
	119	V(net@562##14)	voltage
	120	V(net@562##15)	voltage
	121	V(net@562##16)	voltage
	122	V(net@562##17)	voltage
	123	V(net@562##18)	voltage
	124	V(net@564##0)	voltage
	125	V(net@564##1)	voltage
	126	V(net@564##2)	voltage
	127	V(net@564##3)	voltage
	128	V(net@564##4)	voltage
	129	V(net@564##5)	voltage
	130	V(net@564##6)	voltage
	131	V(net@564##7)	voltage
	132	V(net@564##8)	voltage
	133	V(net@564##9)	voltage
	134	V(net@564##10)	voltage
	135	V(net@564##11)	voltage
	136	V(net@564##12)	voltage
	137	V(net@564##13)	voltage
	138	V(net@564##14)	voltage
	139	V(net@564##15)	voltage
	140	V(net@564##16)	voltage
	141	V(net@564##17)	voltage
	142	V(net@564##18)	voltage
	143	V(xor1_to_nand1#3pin@203_polysilicon-1##0)	voltage
	144	V(xor1_to_nand1#3pin@203_polysilicon-1##1)	voltage
	145	V(xor1_to_nand1#3pin@203_polysilicon-1##2)	voltage
	146	V(cin#5nmos@51_poly-right##0)	voltage
	147	V(cin#0pin@206_metal-2##0)	voltage
	148	V(cin#0pin@206_metal-2##1)	voltage
	149	V(cin#0pin@206_metal-2##2)	voltage
	150	V(cin#0pin@206_metal-2##3)	voltage
	151	V(a0#2pin@177_polysilicon-1##0)	voltage
	152	V(xor1_to_nand1#9pmos@47_poly-left##0)	voltage
	153	V(xor1_to_nand1#9pmos@47_poly-left##1)	voltage
	154	V(xor1_to_nand1#9pmos@47_poly-left##2)	voltage
	155	V(cin#7pin@183_polysilicon-1##0)	voltage
	156	V(cin#7pin@183_polysilicon-1##1)	voltage
	157	V(cin#7pin@183_polysilicon-1##2)	voltage
	158	V(cin#7pin@183_polysilicon-1##3)	voltage
	159	V(cin#7pin@183_polysilicon-1##4)	voltage
	160	V(cin#7pin@183_polysilicon-1##5)	voltage
	161	V(cin#7pin@183_polysilicon-1##6)	voltage
	162	V(cin#7pin@183_polysilicon-1##7)	voltage
	163	V(cin#7pin@183_polysilicon-1##8)	voltage
	164	V(cin#7pin@183_polysilicon-1##9)	voltage
	165	V(cin#7pin@183_polysilicon-1##10)	voltage
	166	V(cin#7pin@183_polysilicon-1##11)	voltage
	167	V(cin#7pin@183_polysilicon-1##12)	voltage
	168	V(cin#7pin@183_polysilicon-1##13)	voltage
	169	V(cin#7pin@183_polysilicon-1##14)	voltage
	170	V(cin#7pin@183_polysilicon-1##15)	voltage
	171	V(cin#7pin@183_polysilicon-1##16)	voltage
	172	V(cin#7pin@183_polysilicon-1##17)	voltage
	173	V(cin#7pin@183_polysilicon-1##18)	voltage
	174	V(net@576#4nmos@53_poly-right##0)	voltage
	175	V(net@576#4nmos@53_poly-right##1)	voltage
	176	V(net@576#2contact@295_metal-1-polysilicon-1##0)	voltage
	177	V(net@576#2contact@295_metal-1-polysilicon-1##1)	voltage
	178	V(net@576#2contact@295_metal-1-polysilicon-1##2)	voltage
	179	V(net@576#2contact@295_metal-1-polysilicon-1##3)	voltage
	180	V(a0#2pin@177_polysilicon-1##1)	voltage
	181	V(a0#2pin@177_polysilicon-1##2)	voltage
	182	V(xor1_to_nand1#1contact@309_metal-1-metal-2##0)	voltage
	183	V(xor1_to_nand1#1contact@309_metal-1-metal-2##1)	voltage
	184	V(xor1_to_nand1#10pin@190_polysilicon-1##0)	voltage
	185	V(xor1_to_nand1#10pin@190_polysilicon-1##1)	voltage
	186	V(cin#8pin@200_polysilicon-1##0)	voltage
	187	V(cin#8pin@200_polysilicon-1##1)	voltage
	188	V(cin#8pin@200_polysilicon-1##2)	voltage
	189	V(cin#8pin@200_polysilicon-1##3)	voltage
	190	V(cin#8pin@200_polysilicon-1##4)	voltage
	191	V(cin#8pin@200_polysilicon-1##5)	voltage
	192	V(net@564#7pmos@48_poly-left##0)	voltage
	193	V(cin#9nmos@49_poly-left##0)	voltage
	194	V(net@577#9nmos@50_poly-left##0)	voltage
	195	V(net@577#9nmos@50_poly-left##1)	voltage
	196	V(net@577#9nmos@50_poly-left##2)	voltage
	197	V(net@577#9nmos@50_poly-left##3)	voltage
	198	V(xor1_to_nand1##0)	voltage
	199	V(xor1_to_nand1##1)	voltage
	200	V(xor1_to_nand1#16pmos@54_poly-right##0)	voltage
	201	V(cin#14pin@212_polysilicon-1##0)	voltage
	202	V(cin#14pin@212_polysilicon-1##1)	voltage
	203	V(cin#14pin@212_polysilicon-1##2)	voltage
	204	V(a0#0contact@317_metal-1-metal-2##0)	voltage
	205	V(a0#0contact@317_metal-1-metal-2##1)	voltage
	206	V(a0#9pmos@56_poly-right##0)	voltage
	207	V(a0#9pmos@56_poly-right##1)	voltage
	208	V(a0#9pmos@56_poly-right##2)	voltage
	209	V(a0#9pmos@56_poly-right##3)	voltage
	210	V(a0#9pmos@56_poly-right##4)	voltage
	211	V(b0#8pin@220_polysilicon-1##0)	voltage
	212	V(b0#8pin@220_polysilicon-1##1)	voltage
	213	V(b0#8pin@220_polysilicon-1##2)	voltage
	214	V(b0#9nmos@44_poly-right##0)	voltage
	215	V(nand2_to_nand3##0)	voltage
	216	V(nand2_to_nand3##1)	voltage
	217	V(nand2_to_nand3#10pmos@58_poly-right##0)	voltage
	218	V(nand2_to_nand3#10pmos@58_poly-right##1)	voltage
	219	V(nand2_to_nand3#10pmos@58_poly-right##2)	voltage
	220	V(nand2_to_nand3#10pmos@58_poly-right##3)	voltage
	221	V(nand2_to_nand3#10pmos@58_poly-right##4)	voltage
	222	V(b0##0)	voltage
	223	V(b0##1)	voltage
	224	V(b0##2)	voltage
	225	V(b0##3)	voltage
	226	V(nand1_to_nand3#11pmos@59_poly-right##0)	voltage
	227	V(nand1_to_nand3#12pin@229_polysilicon-1##0)	voltage
	228	V(nand1_to_nand3#12pin@229_polysilicon-1##1)	voltage
	229	V(cin#16nmos@55_poly-right##0)	voltage
	230	V(cin#16nmos@55_poly-right##1)	voltage
	231	V(cin#16nmos@55_poly-right##2)	voltage
	232	V(cin#16nmos@55_poly-right##3)	voltage
	233	V(cin#16nmos@55_poly-right##4)	voltage
	234	V(cin#16nmos@55_poly-right##5)	voltage
	235	V(b0#13nmos@57_poly-right##0)	voltage
	236	V(b0#13nmos@57_poly-right##1)	voltage
	237	V(b0#13nmos@57_poly-right##2)	voltage
	238	V(b0#13nmos@57_poly-right##3)	voltage
	239	V(b0#13nmos@57_poly-right##4)	voltage
	240	V(b0#13nmos@57_poly-right##5)	voltage
	241	V(b0#13nmos@57_poly-right##6)	voltage
	242	V(b0#13nmos@57_poly-right##7)	voltage
	243	V(a0#10pmos@40_poly-left##0)	voltage
	244	V(a0#10pmos@40_poly-left##1)	voltage
	245	V(a0#10pmos@40_poly-left##2)	voltage
	246	V(b0#14pin@157_polysilicon-1##0)	voltage
	247	V(b0#14pin@157_polysilicon-1##1)	voltage
	248	V(b0#14pin@157_polysilicon-1##2)	voltage
	249	V(b0#14pin@157_polysilicon-1##3)	voltage
	250	V(b0#14pin@157_polysilicon-1##4)	voltage
	251	V(b0#14pin@157_polysilicon-1##5)	voltage
	252	V(b0#14pin@157_polysilicon-1##6)	voltage
	253	V(b0#14pin@157_polysilicon-1##7)	voltage
	254	V(b0#14pin@157_polysilicon-1##8)	voltage
	255	V(b0#14pin@157_polysilicon-1##9)	voltage
	256	V(b0#14pin@157_polysilicon-1##10)	voltage
	257	V(b0#14pin@157_polysilicon-1##11)	voltage
	258	V(b0#14pin@157_polysilicon-1##12)	voltage
	259	V(b0#14pin@157_polysilicon-1##13)	voltage
	260	V(b0#14pin@157_polysilicon-1##14)	voltage
	261	V(b0#14pin@157_polysilicon-1##15)	voltage
	262	V(b0#14pin@157_polysilicon-1##16)	voltage
	263	V(b0#14pin@157_polysilicon-1##17)	voltage
	264	V(b0#14pin@157_polysilicon-1##18)	voltage
	265	V(net@676#4nmos@46_poly-right##0)	voltage
	266	V(net@676#4nmos@46_poly-right##1)	voltage
	267	V(net@676#2contact@256_metal-1-polysilicon-1##0)	voltage
	268	V(net@676#2contact@256_metal-1-polysilicon-1##1)	voltage
	269	V(net@676#2contact@256_metal-1-polysilicon-1##2)	voltage
	270	V(net@676#2contact@256_metal-1-polysilicon-1##3)	voltage
	271	V(a0##0)	voltage
	272	V(a0##1)	voltage
	273	V(a0#11pin@164_polysilicon-1##0)	voltage
	274	V(a0#11pin@164_polysilicon-1##1)	voltage
	275	V(b0#15pin@174_polysilicon-1##0)	voltage
	276	V(b0#15pin@174_polysilicon-1##1)	voltage
	277	V(b0#15pin@174_polysilicon-1##2)	voltage
	278	V(b0#15pin@174_polysilicon-1##3)	voltage
	279	V(b0#15pin@174_polysilicon-1##4)	voltage
	280	V(b0#15pin@174_polysilicon-1##5)	voltage
	281	V(net@562#7pmos@41_poly-left##0)	voltage
	282	V(b0#16nmos@42_poly-left##0)	voltage
	283	V(net@684#9nmos@43_poly-left##0)	voltage
	284	V(net@684#9nmos@43_poly-left##1)	voltage
	285	V(net@684#9nmos@43_poly-left##2)	voltage
	286	V(net@684#9nmos@43_poly-left##3)	voltage
	287	V(a0#2pin@177_polysilicon-1##3)	voltage
	288	V(a0#2pin@177_polysilicon-1##4)	voltage
	289	V(a0#2pin@177_polysilicon-1##5)	voltage
	290	V(a0#2pin@177_polysilicon-1##6)	voltage
	291	V(a0#2pin@177_polysilicon-1##7)	voltage
	292	V(a0#2pin@177_polysilicon-1##8)	voltage
	293	V(a0#2pin@177_polysilicon-1##9)	voltage
	294	V(a0#2pin@177_polysilicon-1##10)	voltage
	295	V(a0#2pin@177_polysilicon-1##11)	voltage
	296	V(a0#2pin@177_polysilicon-1##12)	voltage
	297	V(a0#2pin@177_polysilicon-1##13)	voltage
	298	V(a0#2pin@177_polysilicon-1##14)	voltage
	299	V(a0#2pin@177_polysilicon-1##15)	voltage
	300	V(a0#2pin@177_polysilicon-1##16)	voltage
	301	V(a0#2pin@177_polysilicon-1##17)	voltage
	302	V(a0#2pin@177_polysilicon-1##18)	voltage
	303	V(a0#2pin@177_polysilicon-1##19)	voltage
	304	V(a0#2pin@177_polysilicon-1##20)	voltage
	305	V(a0#2pin@177_polysilicon-1##21)	voltage
	306	V(a0#2pin@177_polysilicon-1##22)	voltage
	307	V(a0#2pin@177_polysilicon-1##23)	voltage
	308	V(a0#2pin@177_polysilicon-1##24)	voltage
	309	V(a0#2pin@177_polysilicon-1##25)	voltage
	310	V(a0#2pin@177_polysilicon-1##26)	voltage
	311	V(a0#2pin@177_polysilicon-1##27)	voltage
	312	V(a0#2pin@177_polysilicon-1##28)	voltage
	313	V(a0#2pin@177_polysilicon-1##29)	voltage
	314	V(a0#2pin@177_polysilicon-1##30)	voltage
	315	V(a0#2pin@177_polysilicon-1##31)	voltage
	316	V(a0#2pin@177_polysilicon-1##32)	voltage
	317	V(a0#2pin@177_polysilicon-1##33)	voltage
	318	V(a0#2pin@177_polysilicon-1##34)	voltage
	319	V(a0#2pin@177_polysilicon-1##35)	voltage
	320	V(a0#2pin@177_polysilicon-1##36)	voltage
	321	V(a0#2pin@177_polysilicon-1##37)	voltage
	322	V(a0#2pin@177_polysilicon-1##38)	voltage
	323	V(a0#2pin@177_polysilicon-1##39)	voltage
	324	V(a0#2pin@177_polysilicon-1##40)	voltage
	325	V(a0#2pin@177_polysilicon-1##41)	voltage
	326	V(a0#2pin@177_polysilicon-1##42)	voltage
	327	V(a0#2pin@177_polysilicon-1##43)	voltage
	328	V(a0#2pin@177_polysilicon-1##44)	voltage
	329	V(a0#2pin@177_polysilicon-1##45)	voltage
	330	V(a0#2pin@177_polysilicon-1##46)	voltage
	331	V(a0#2pin@177_polysilicon-1##47)	voltage
	332	V(a0#2pin@177_polysilicon-1##48)	voltage
	333	V(a0#2pin@177_polysilicon-1##49)	voltage
	334	V(a0#2pin@177_polysilicon-1##50)	voltage
	335	V(a0#2pin@177_polysilicon-1##51)	voltage
	336	V(a0#2pin@177_polysilicon-1##52)	voltage
	337	V(a0#2pin@177_polysilicon-1##53)	voltage
	338	V(a0#2pin@177_polysilicon-1##54)	voltage
	339	V(net@562#1pin@176_polysilicon-1##0)	voltage
	340	V(net@562#1pin@176_polysilicon-1##1)	voltage
	341	V(net@562#1pin@176_polysilicon-1##2)	voltage
	342	V(net@562#1pin@176_polysilicon-1##3)	voltage
	343	V(net@562#1pin@176_polysilicon-1##4)	voltage
	344	V(net@562#1pin@176_polysilicon-1##5)	voltage
	345	V(net@562#1pin@176_polysilicon-1##6)	voltage
	346	V(net@562#1pin@176_polysilicon-1##7)	voltage
	347	V(net@562#1pin@176_polysilicon-1##8)	voltage
	348	V(net@562#1pin@176_polysilicon-1##9)	voltage
	349	V(net@562#1pin@176_polysilicon-1##10)	voltage
	350	V(net@562#1pin@176_polysilicon-1##11)	voltage
	351	V(net@562#1pin@176_polysilicon-1##12)	voltage
	352	V(net@562#1pin@176_polysilicon-1##13)	voltage
	353	V(net@562#1pin@176_polysilicon-1##14)	voltage
	354	V(net@562#1pin@176_polysilicon-1##15)	voltage
	355	V(net@562#1pin@176_polysilicon-1##16)	voltage
	356	V(net@562#1pin@176_polysilicon-1##17)	voltage
	357	V(net@562#1pin@176_polysilicon-1##18)	voltage
	358	V(net@562#1pin@176_polysilicon-1##19)	voltage
	359	V(net@562#1pin@176_polysilicon-1##20)	voltage
	360	V(net@562#1pin@176_polysilicon-1##21)	voltage
	361	V(net@562#1pin@176_polysilicon-1##22)	voltage
	362	V(net@562#1pin@176_polysilicon-1##23)	voltage
	363	V(net@562#1pin@176_polysilicon-1##24)	voltage
	364	V(net@562#1pin@176_polysilicon-1##25)	voltage
	365	V(net@562#1pin@176_polysilicon-1##26)	voltage
	366	V(net@562#1pin@176_polysilicon-1##27)	voltage
	367	V(net@562#1pin@176_polysilicon-1##28)	voltage
	368	V(net@562#1pin@176_polysilicon-1##29)	voltage
	369	V(net@562#1pin@176_polysilicon-1##30)	voltage
	370	V(net@562#1pin@176_polysilicon-1##31)	voltage
	371	V(net@562#1pin@176_polysilicon-1##32)	voltage
	372	V(net@562#1pin@176_polysilicon-1##33)	voltage
	373	V(net@562#1pin@176_polysilicon-1##34)	voltage
	374	V(net@562#1pin@176_polysilicon-1##35)	voltage
	375	V(net@562#1pin@176_polysilicon-1##36)	voltage
	376	V(net@562#1pin@176_polysilicon-1##37)	voltage
	377	V(net@562#1pin@176_polysilicon-1##38)	voltage
	378	V(net@562#1pin@176_polysilicon-1##39)	voltage
	379	V(net@562#1pin@176_polysilicon-1##40)	voltage
	380	V(net@562#1pin@176_polysilicon-1##41)	voltage
	381	V(net@562#1pin@176_polysilicon-1##42)	voltage
	382	V(net@562#1pin@176_polysilicon-1##43)	voltage
	383	V(net@562#1pin@176_polysilicon-1##44)	voltage
	384	V(net@562#1pin@176_polysilicon-1##45)	voltage
	385	V(net@562#1pin@176_polysilicon-1##46)	voltage
	386	V(net@562#1pin@176_polysilicon-1##47)	voltage
	387	V(net@562#1pin@176_polysilicon-1##48)	voltage
	388	V(net@562#1pin@176_polysilicon-1##49)	voltage
	389	V(net@562#1pin@176_polysilicon-1##50)	voltage
	390	V(net@562#1pin@176_polysilicon-1##51)	voltage
	391	V(net@562#1pin@176_polysilicon-1##52)	voltage
	392	V(net@562#1pin@176_polysilicon-1##53)	voltage
	393	V(net@562#1pin@176_polysilicon-1##54)	voltage
	394	V(net@562#1pin@176_polysilicon-1##55)	voltage
	395	V(net@562#1pin@176_polysilicon-1##56)	voltage
	396	V(net@562#1pin@176_polysilicon-1##57)	voltage
	397	V(net@562#1pin@176_polysilicon-1##58)	voltage
	398	V(net@562#1pin@176_polysilicon-1##59)	voltage
	399	V(net@562#1pin@176_polysilicon-1##60)	voltage
	400	V(b0#17pmos@44_poly-right##0)	voltage
	401	V(b0#17pmos@44_poly-right##1)	voltage
	402	V(b0#17pmos@44_poly-right##2)	voltage
	403	V(b0#17pmos@44_poly-right##3)	voltage
	404	V(b0#17pmos@44_poly-right##4)	voltage
	405	V(b0#17pmos@44_poly-right##5)	voltage
	406	V(b0#17pmos@44_poly-right##6)	voltage
	407	V(b0#17pmos@44_poly-right##7)	voltage
	408	V(b0#17pmos@44_poly-right##8)	voltage
	409	V(b0#17pmos@44_poly-right##9)	voltage
	410	V(b0#17pmos@44_poly-right##10)	voltage
	411	V(b0#17pmos@44_poly-right##11)	voltage
	412	V(b0#17pmos@44_poly-right##12)	voltage
	413	V(b0#17pmos@44_poly-right##13)	voltage
	414	V(b0#17pmos@44_poly-right##14)	voltage
	415	V(b0#17pmos@44_poly-right##15)	voltage
	416	V(b0#17pmos@44_poly-right##16)	voltage
	417	V(b0#17pmos@44_poly-right##17)	voltage
	418	V(b0#17pmos@44_poly-right##18)	voltage
	419	V(b0#17pmos@44_poly-right##19)	voltage
	420	V(b0#17pmos@44_poly-right##20)	voltage
	421	V(b0#17pmos@44_poly-right##21)	voltage
	422	V(b0#17pmos@44_poly-right##22)	voltage
	423	V(b0#17pmos@44_poly-right##23)	voltage
	424	V(b0#17pmos@44_poly-right##24)	voltage
	425	V(b0#17pmos@44_poly-right##25)	voltage
	426	V(b0#17pmos@44_poly-right##26)	voltage
	427	V(b0#17pmos@44_poly-right##27)	voltage
	428	V(b0#17pmos@44_poly-right##28)	voltage
	429	V(b0#17pmos@44_poly-right##29)	voltage
	430	V(b0#17pmos@44_poly-right##30)	voltage
	431	V(b0#17pmos@44_poly-right##31)	voltage
	432	V(b0#17pmos@44_poly-right##32)	voltage
	433	V(b0#17pmos@44_poly-right##33)	voltage
	434	V(b0#17pmos@44_poly-right##34)	voltage
	435	V(b0#17pmos@44_poly-right##35)	voltage
	436	V(b0#17pmos@44_poly-right##36)	voltage
	437	V(b0#17pmos@44_poly-right##37)	voltage
	438	V(b0#17pmos@44_poly-right##38)	voltage
	439	V(b0#17pmos@44_poly-right##39)	voltage
	440	V(b0#17pmos@44_poly-right##40)	voltage
	441	V(b0#17pmos@44_poly-right##41)	voltage
	442	V(b0#17pmos@44_poly-right##42)	voltage
	443	V(b0#17pmos@44_poly-right##43)	voltage
	444	V(b0#17pmos@44_poly-right##44)	voltage
	445	V(b0#17pmos@44_poly-right##45)	voltage
	446	V(b0#17pmos@44_poly-right##46)	voltage
	447	V(b0#17pmos@44_poly-right##47)	voltage
	448	V(b0#17pmos@44_poly-right##48)	voltage
	449	V(b0#17pmos@44_poly-right##49)	voltage
	450	V(b0#17pmos@44_poly-right##50)	voltage
	451	V(b0#17pmos@44_poly-right##51)	voltage
	452	V(b0#17pmos@44_poly-right##52)	voltage
	453	V(b0#17pmos@44_poly-right##53)	voltage
	454	V(b0#17pmos@44_poly-right##54)	voltage
	455	V(a0#15nmos@40_poly-right##0)	voltage
	456	V(a0#15nmos@40_poly-right##1)	voltage
	457	V(a0#15nmos@40_poly-right##2)	voltage
	458	V(a0#15nmos@40_poly-right##3)	voltage
	459	V(a0#15nmos@40_poly-right##4)	voltage
	460	V(a0#15nmos@40_poly-right##5)	voltage
	461	V(a0#15nmos@40_poly-right##6)	voltage
	462	V(a0#15nmos@40_poly-right##7)	voltage
	463	V(a0#15nmos@40_poly-right##8)	voltage
	464	V(a0#15nmos@40_poly-right##9)	voltage
	465	V(a0#15nmos@40_poly-right##10)	voltage
	466	V(a0#15nmos@40_poly-right##11)	voltage
	467	V(a0#15nmos@40_poly-right##12)	voltage
	468	V(a0#15nmos@40_poly-right##13)	voltage
	469	V(a0#15nmos@40_poly-right##14)	voltage
	470	V(a0#15nmos@40_poly-right##15)	voltage
	471	V(a0#15nmos@40_poly-right##16)	voltage
	472	V(a0#15nmos@40_poly-right##17)	voltage
	473	V(a0#15nmos@40_poly-right##18)	voltage
	474	V(a0#15nmos@40_poly-right##19)	voltage
	475	V(a0#15nmos@40_poly-right##20)	voltage
	476	V(a0#15nmos@40_poly-right##21)	voltage
	477	V(a0#15nmos@40_poly-right##22)	voltage
	478	V(a0#15nmos@40_poly-right##23)	voltage
	479	V(a0#15nmos@40_poly-right##24)	voltage
	480	V(a0#15nmos@40_poly-right##25)	voltage
	481	V(a0#15nmos@40_poly-right##26)	voltage
	482	V(a0#15nmos@40_poly-right##27)	voltage
	483	V(a0#15nmos@40_poly-right##28)	voltage
	484	V(a0#15nmos@40_poly-right##29)	voltage
	485	V(a0#15nmos@40_poly-right##30)	voltage
	486	V(a0#15nmos@40_poly-right##31)	voltage
	487	V(a0#15nmos@40_poly-right##32)	voltage
	488	V(a0#15nmos@40_poly-right##33)	voltage
	489	V(a0#15nmos@40_poly-right##34)	voltage
	490	V(a0#15nmos@40_poly-right##35)	voltage
	491	V(a0#15nmos@40_poly-right##36)	voltage
	492	V(a0#15nmos@40_poly-right##37)	voltage
	493	V(a0#15nmos@40_poly-right##38)	voltage
	494	V(a0#15nmos@40_poly-right##39)	voltage
	495	V(a0#15nmos@40_poly-right##40)	voltage
	496	V(a0#15nmos@40_poly-right##41)	voltage
	497	V(a0#15nmos@40_poly-right##42)	voltage
	498	V(a0#15nmos@40_poly-right##43)	voltage
	499	V(a0#15nmos@40_poly-right##44)	voltage
	500	V(a0#15nmos@40_poly-right##45)	voltage
	501	V(a0#15nmos@40_poly-right##46)	voltage
	502	V(a0#15nmos@40_poly-right##47)	voltage
	503	V(a0#15nmos@40_poly-right##48)	voltage
	504	V(a0#15nmos@40_poly-right##49)	voltage
	505	V(a0#15nmos@40_poly-right##50)	voltage
	506	V(a0#15nmos@40_poly-right##51)	voltage
	507	V(a0#15nmos@40_poly-right##52)	voltage
	508	V(a0#15nmos@40_poly-right##53)	voltage
	509	V(a0#15nmos@40_poly-right##54)	voltage
	510	V(a0#15nmos@40_poly-right##55)	voltage
	511	V(net@562#7pmos@41_poly-left##1)	voltage
	512	V(net@562#7pmos@41_poly-left##2)	voltage
	513	V(net@562#7pmos@41_poly-left##3)	voltage
	514	V(net@562#7pmos@41_poly-left##4)	voltage
	515	V(net@562#7pmos@41_poly-left##5)	voltage
	516	V(net@562#7pmos@41_poly-left##6)	voltage
	517	V(net@562#7pmos@41_poly-left##7)	voltage
	518	V(net@562#7pmos@41_poly-left##8)	voltage
	519	V(net@562#7pmos@41_poly-left##9)	voltage
	520	V(net@562#7pmos@41_poly-left##10)	voltage
	521	V(net@562#7pmos@41_poly-left##11)	voltage
	522	V(net@562#7pmos@41_poly-left##12)	voltage
	523	V(net@562#7pmos@41_poly-left##13)	voltage
	524	V(net@562#7pmos@41_poly-left##14)	voltage
	525	V(net@562#7pmos@41_poly-left##15)	voltage
	526	V(net@562#7pmos@41_poly-left##16)	voltage
	527	V(net@562#7pmos@41_poly-left##17)	voltage
	528	V(net@562#7pmos@41_poly-left##18)	voltage
	529	V(net@562#7pmos@41_poly-left##19)	voltage
	530	V(net@562#7pmos@41_poly-left##20)	voltage
	531	V(net@562#7pmos@41_poly-left##21)	voltage
	532	V(net@562#7pmos@41_poly-left##22)	voltage
	533	V(net@562#7pmos@41_poly-left##23)	voltage
	534	V(net@562#7pmos@41_poly-left##24)	voltage
	535	V(net@562#7pmos@41_poly-left##25)	voltage
	536	V(net@562#7pmos@41_poly-left##26)	voltage
	537	V(net@562#7pmos@41_poly-left##27)	voltage
	538	V(net@562#7pmos@41_poly-left##28)	voltage
	539	V(net@562#7pmos@41_poly-left##29)	voltage
	540	V(net@562#7pmos@41_poly-left##30)	voltage
	541	V(net@562#7pmos@41_poly-left##31)	voltage
	542	V(net@562#7pmos@41_poly-left##32)	voltage
	543	V(net@562#7pmos@41_poly-left##33)	voltage
	544	V(net@562#7pmos@41_poly-left##34)	voltage
	545	V(net@562#7pmos@41_poly-left##35)	voltage
	546	V(net@562#7pmos@41_poly-left##36)	voltage
	547	V(net@562#7pmos@41_poly-left##37)	voltage
	548	V(net@562#7pmos@41_poly-left##38)	voltage
	549	V(net@562#7pmos@41_poly-left##39)	voltage
	550	V(net@562#7pmos@41_poly-left##40)	voltage
	551	V(net@562#7pmos@41_poly-left##41)	voltage
	552	V(net@562#7pmos@41_poly-left##42)	voltage
	553	V(net@562#7pmos@41_poly-left##43)	voltage
	554	V(net@562#7pmos@41_poly-left##44)	voltage
	555	V(net@562#7pmos@41_poly-left##45)	voltage
	556	V(net@562#7pmos@41_poly-left##46)	voltage
	557	V(net@562#7pmos@41_poly-left##47)	voltage
	558	V(net@562#7pmos@41_poly-left##48)	voltage
	559	V(net@562#7pmos@41_poly-left##49)	voltage
	560	V(net@562#7pmos@41_poly-left##50)	voltage
	561	V(net@562#7pmos@41_poly-left##51)	voltage
	562	V(net@562#7pmos@41_poly-left##52)	voltage
	563	V(net@562#7pmos@41_poly-left##53)	voltage
	564	V(net@562#7pmos@41_poly-left##54)	voltage
	565	V(net@562#7pmos@41_poly-left##55)	voltage
	566	V(b0#18pmos@42_poly-right##0)	voltage
	567	V(b0#18pmos@42_poly-right##1)	voltage
	568	V(b0#18pmos@42_poly-right##2)	voltage
	569	V(b0#18pmos@42_poly-right##3)	voltage
	570	V(b0#18pmos@42_poly-right##4)	voltage
	571	V(b0#18pmos@42_poly-right##5)	voltage
	572	V(b0#18pmos@42_poly-right##6)	voltage
	573	V(b0#18pmos@42_poly-right##7)	voltage
	574	V(b0#18pmos@42_poly-right##8)	voltage
	575	V(b0#18pmos@42_poly-right##9)	voltage
	576	V(b0#18pmos@42_poly-right##10)	voltage
	577	V(b0#18pmos@42_poly-right##11)	voltage
	578	V(b0#18pmos@42_poly-right##12)	voltage
	579	V(b0#18pmos@42_poly-right##13)	voltage
	580	V(b0#18pmos@42_poly-right##14)	voltage
	581	V(b0#18pmos@42_poly-right##15)	voltage
	582	V(b0#18pmos@42_poly-right##16)	voltage
	583	V(b0#18pmos@42_poly-right##17)	voltage
	584	V(b0#18pmos@42_poly-right##18)	voltage
	585	V(b0#18pmos@42_poly-right##19)	voltage
	586	V(b0#18pmos@42_poly-right##20)	voltage
	587	V(b0#18pmos@42_poly-right##21)	voltage
	588	V(b0#18pmos@42_poly-right##22)	voltage
	589	V(b0#18pmos@42_poly-right##23)	voltage
	590	V(b0#18pmos@42_poly-right##24)	voltage
	591	V(b0#18pmos@42_poly-right##25)	voltage
	592	V(b0#18pmos@42_poly-right##26)	voltage
	593	V(b0#18pmos@42_poly-right##27)	voltage
	594	V(b0#18pmos@42_poly-right##28)	voltage
	595	V(b0#18pmos@42_poly-right##29)	voltage
	596	V(b0#18pmos@42_poly-right##30)	voltage
	597	V(b0#18pmos@42_poly-right##31)	voltage
	598	V(b0#18pmos@42_poly-right##32)	voltage
	599	V(b0#18pmos@42_poly-right##33)	voltage
	600	V(b0#18pmos@42_poly-right##34)	voltage
	601	V(b0#18pmos@42_poly-right##35)	voltage
	602	V(b0#18pmos@42_poly-right##36)	voltage
	603	V(b0#18pmos@42_poly-right##37)	voltage
	604	V(b0#18pmos@42_poly-right##38)	voltage
	605	V(b0#18pmos@42_poly-right##39)	voltage
	606	V(b0#18pmos@42_poly-right##40)	voltage
	607	V(b0#18pmos@42_poly-right##41)	voltage
	608	V(b0#18pmos@42_poly-right##42)	voltage
	609	V(b0#18pmos@42_poly-right##43)	voltage
	610	V(b0#18pmos@42_poly-right##44)	voltage
	611	V(b0#18pmos@42_poly-right##45)	voltage
	612	V(b0#18pmos@42_poly-right##46)	voltage
	613	V(b0#18pmos@42_poly-right##47)	voltage
	614	V(b0#18pmos@42_poly-right##48)	voltage
	615	V(b0#18pmos@42_poly-right##49)	voltage
	616	V(b0#18pmos@42_poly-right##50)	voltage
	617	V(b0#18pmos@42_poly-right##51)	voltage
	618	V(b0#18pmos@42_poly-right##52)	voltage
	619	V(b0#18pmos@42_poly-right##53)	voltage
	620	V(b0#18pmos@42_poly-right##54)	voltage
	621	V(b0#18pmos@42_poly-right##55)	voltage
	622	V(net@684#14pmos@43_poly-right##0)	voltage
	623	V(net@684#14pmos@43_poly-right##1)	voltage
	624	V(net@684#14pmos@43_poly-right##2)	voltage
	625	V(net@684#14pmos@43_poly-right##3)	voltage
	626	V(net@684#14pmos@43_poly-right##4)	voltage
	627	V(net@684#14pmos@43_poly-right##5)	voltage
	628	V(net@684#14pmos@43_poly-right##6)	voltage
	629	V(net@684#14pmos@43_poly-right##7)	voltage
	630	V(net@684#14pmos@43_poly-right##8)	voltage
	631	V(net@684#14pmos@43_poly-right##9)	voltage
	632	V(net@684#14pmos@43_poly-right##10)	voltage
	633	V(net@684#14pmos@43_poly-right##11)	voltage
	634	V(net@684#14pmos@43_poly-right##12)	voltage
	635	V(net@684#14pmos@43_poly-right##13)	voltage
	636	V(net@684#14pmos@43_poly-right##14)	voltage
	637	V(net@684#14pmos@43_poly-right##15)	voltage
	638	V(net@684#14pmos@43_poly-right##16)	voltage
	639	V(net@684#14pmos@43_poly-right##17)	voltage
	640	V(net@684#14pmos@43_poly-right##18)	voltage
	641	V(net@684#14pmos@43_poly-right##19)	voltage
	642	V(net@684#14pmos@43_poly-right##20)	voltage
	643	V(net@684#14pmos@43_poly-right##21)	voltage
	644	V(net@684#14pmos@43_poly-right##22)	voltage
	645	V(net@684#14pmos@43_poly-right##23)	voltage
	646	V(net@684#14pmos@43_poly-right##24)	voltage
	647	V(net@684#14pmos@43_poly-right##25)	voltage
	648	V(net@684#14pmos@43_poly-right##26)	voltage
	649	V(net@684#14pmos@43_poly-right##27)	voltage
	650	V(net@684#14pmos@43_poly-right##28)	voltage
	651	V(net@684#14pmos@43_poly-right##29)	voltage
	652	V(net@684#14pmos@43_poly-right##30)	voltage
	653	V(net@684#14pmos@43_poly-right##31)	voltage
	654	V(net@684#14pmos@43_poly-right##32)	voltage
	655	V(net@684#14pmos@43_poly-right##33)	voltage
	656	V(net@684#14pmos@43_poly-right##34)	voltage
	657	V(net@684#14pmos@43_poly-right##35)	voltage
	658	V(net@684#14pmos@43_poly-right##36)	voltage
	659	V(net@684#14pmos@43_poly-right##37)	voltage
	660	V(net@684#14pmos@43_poly-right##38)	voltage
	661	V(net@684#14pmos@43_poly-right##39)	voltage
	662	V(net@684#14pmos@43_poly-right##40)	voltage
	663	V(net@684#14pmos@43_poly-right##41)	voltage
	664	V(net@684#14pmos@43_poly-right##42)	voltage
	665	V(net@684#14pmos@43_poly-right##43)	voltage
	666	V(net@684#14pmos@43_poly-right##44)	voltage
	667	V(net@684#14pmos@43_poly-right##45)	voltage
	668	V(net@684#14pmos@43_poly-right##46)	voltage
	669	V(net@684#14pmos@43_poly-right##47)	voltage
	670	V(net@684#14pmos@43_poly-right##48)	voltage
	671	V(net@684#14pmos@43_poly-right##49)	voltage