Title: *** SPICE deck for cell One_bit_adder2{lay} from library Proj2
Date: Thu Mar 19 00:50:53 2020
Plotname: Operating Point
Flags: real
No. Variables: 1744
No. Points:            1
Offset:   0.0000000000000000e+000
Command: Linear Technology Corporation LTspice IV
Variables:
	0	V(net@23)	voltage
	1	V(a#12nmos@0_poly-right)	voltage
	2	V(net@0)	voltage
	3	V(net@82)	voltage
	4	V(net@6#9nmos@1_poly-right)	voltage
	5	V(b#11nmos@2_poly-right)	voltage
	6	V(net@3#8nmos@3_poly-right)	voltage
	7	V(net@3)	voltage
	8	V(b#8nmos@4_poly-right)	voltage
	9	V(net@6)	voltage
	10	V(a#2nmos@5_poly-right)	voltage
	11	V(xor1_to_nand1#1contact@90_metal-1-metal-2)	voltage
	12	V(net@23#4nmos@6_poly-right)	voltage
	13	V(net@115)	voltage
	14	V(xor1_to_nand1#20nmos@7_poly-right)	voltage
	15	V(net@99)	voltage
	16	V(net@180)	voltage
	17	V(net@101#7nmos@8_poly-right)	voltage
	18	V(cin#10nmos@9_poly-right)	voltage
	19	V(net@117#8nmos@10_poly-right)	voltage
	20	V(net@117)	voltage
	21	V(cin#5nmos@11_poly-right)	voltage
	22	V(net@101#2contact@66_metal-1-polysilicon-1)	voltage
	23	V(xor1_to_nand1#9nmos@12_poly-right)	voltage
	24	V(sum)	voltage
	25	V(net@115#4nmos@13_poly-right)	voltage
	26	V(net@226)	voltage
	27	V(xor1_to_nand1#26nmos@14_poly-right)	voltage
	28	V(nand1_to_nand3)	voltage
	29	V(cin#20nmos@15_poly-right)	voltage
	30	V(net@290)	voltage
	31	V(a#17nmos@16_poly-right)	voltage
	32	V(nand2_to_nand3)	voltage
	33	V(b#20nmos@17_poly-right)	voltage
	34	V(net@339)	voltage
	35	V(nand2_to_nand3#11nmos@18_poly-right)	voltage
	36	V(cout)	voltage
	37	V(nand1_to_nand3#14nmos@19_poly-right)	voltage
	38	V(vdd)	voltage
	39	V(a#8pmos@0_poly-left)	voltage
	40	V(net@67)	voltage
	41	V(net@6#2pmos@1_poly-left)	voltage
	42	V(b#12pmos@2_poly-right)	voltage
	43	V(net@3#9pmos@3_poly-right)	voltage
	44	V(b#10pmos@4_poly-right)	voltage
	45	V(a#4pmos@5_poly-right)	voltage
	46	V(net@23#6pmos@6_poly-right)	voltage
	47	V(xor1_to_nand1#16pmos@7_poly-left)	voltage
	48	V(net@163)	voltage
	49	V(net@101#8pmos@8_poly-right)	voltage
	50	V(cin#11pmos@9_poly-right)	voltage
	51	V(net@117#9pmos@10_poly-right)	voltage
	52	V(cin#7pmos@11_poly-right)	voltage
	53	V(xor1_to_nand1#11pmos@12_poly-right)	voltage
	54	V(net@115#6pmos@13_poly-right)	voltage
	55	V(xor1_to_nand1#25pmos@14_poly-right)	voltage
	56	V(cin#17pmos@15_poly-right)	voltage
	57	V(a#16pmos@16_poly-right)	voltage
	58	V(b#16pmos@17_poly-right)	voltage
	59	V(nand2_to_nand3#10pmos@18_poly-right)	voltage
	60	V(nand1_to_nand3#12pmos@19_poly-right)	voltage
	61	V(b)	voltage
	62	V(a)	voltage
	63	V(cin#0pin@55_metal-2)	voltage
	64	V(cin)	voltage
	65	V(xor1_to_nand1)	voltage
	66	V(cin#14contact@87_metal-1-metal-2)	voltage
	67	V(a#0contact@98_metal-1-metal-2)	voltage
	68	V(b#0contact@99_metal-1-metal-2)	voltage
	69	V(net@6#3pin@21_polysilicon-1)	voltage
	70	V(b#4pin@3_polysilicon-1)	voltage
	71	V(a#9pin@10_polysilicon-1)	voltage
	72	V(a#11pin@11_polysilicon-1)	voltage
	73	V(b#9pin@13_polysilicon-1)	voltage
	74	V(net@23#5pin@15_polysilicon-1)	voltage
	75	V(b#5pin@20_polysilicon-1)	voltage
	76	V(net@6#5pin@22_polysilicon-1)	voltage
	77	V(a#3pin@23_polysilicon-1)	voltage
	78	V(net@101)	voltage
	79	V(cin#8pin@30_polysilicon-1)	voltage
	80	V(xor1_to_nand1#17pin@37_polysilicon-1)	voltage
	81	V(xor1_to_nand1#19pin@38_polysilicon-1)	voltage
	82	V(cin#6pin@40_polysilicon-1)	voltage
	83	V(net@115#5pin@42_polysilicon-1)	voltage
	84	V(cin#9pin@47_polysilicon-1)	voltage
	85	V(net@101#1pin@49_polysilicon-1)	voltage
	86	V(xor1_to_nand1#10pin@50_polysilicon-1)	voltage
	87	V(xor1_to_nand1#23pin@57_polysilicon-1)	voltage
	88	V(cin#18pin@71_polysilicon-1)	voltage
	89	V(a#15pin@81_polysilicon-1)	voltage
	90	V(b#17pin@92_polysilicon-1)	voltage
	91	V(nand2_to_nand3#9pin@98_polysilicon-1)	voltage
	92	V(nand1_to_nand3#13pin@106_polysilicon-1)	voltage
	93	V(b#0contact@99_metal-1-metal-2##0)	voltage
	94	V(b#4pin@3_polysilicon-1##0)	voltage
	95	V(b#4pin@3_polysilicon-1##1)	voltage
	96	V(b#4pin@3_polysilicon-1##2)	voltage
	97	V(b#4pin@3_polysilicon-1##3)	voltage
	98	V(b#4pin@3_polysilicon-1##4)	voltage
	99	V(b#4pin@3_polysilicon-1##5)	voltage
	100	V(b#4pin@3_polysilicon-1##6)	voltage
	101	V(b#4pin@3_polysilicon-1##7)	voltage
	102	V(b#4pin@3_polysilicon-1##8)	voltage
	103	V(b#4pin@3_polysilicon-1##9)	voltage
	104	V(b#4pin@3_polysilicon-1##10)	voltage
	105	V(b#4pin@3_polysilicon-1##11)	voltage
	106	V(b#4pin@3_polysilicon-1##12)	voltage
	107	V(b#4pin@3_polysilicon-1##13)	voltage
	108	V(b#4pin@3_polysilicon-1##14)	voltage
	109	V(b#4pin@3_polysilicon-1##15)	voltage
	110	V(b#4pin@3_polysilicon-1##16)	voltage
	111	V(b#4pin@3_polysilicon-1##17)	voltage
	112	V(b#4pin@3_polysilicon-1##18)	voltage
	113	V(b#5pin@20_polysilicon-1##0)	voltage
	114	V(b#5pin@20_polysilicon-1##1)	voltage
	115	V(b#5pin@20_polysilicon-1##2)	voltage
	116	V(b#5pin@20_polysilicon-1##3)	voltage
	117	V(b#5pin@20_polysilicon-1##4)	voltage
	118	V(b#5pin@20_polysilicon-1##5)	voltage
	119	V(net@6#2pmos@1_poly-left##0)	voltage
	120	V(net@6#3pin@21_polysilicon-1##0)	voltage
	121	V(net@6#3pin@21_polysilicon-1##1)	voltage
	122	V(net@6#3pin@21_polysilicon-1##2)	voltage
	123	V(net@6#3pin@21_polysilicon-1##3)	voltage
	124	V(net@6#3pin@21_polysilicon-1##4)	voltage
	125	V(net@6#3pin@21_polysilicon-1##5)	voltage
	126	V(net@6#3pin@21_polysilicon-1##6)	voltage
	127	V(net@6#3pin@21_polysilicon-1##7)	voltage
	128	V(net@6#3pin@21_polysilicon-1##8)	voltage
	129	V(net@6#3pin@21_polysilicon-1##9)	voltage
	130	V(net@6#3pin@21_polysilicon-1##10)	voltage
	131	V(net@6#3pin@21_polysilicon-1##11)	voltage
	132	V(net@6#3pin@21_polysilicon-1##12)	voltage
	133	V(net@6#3pin@21_polysilicon-1##13)	voltage
	134	V(net@6#3pin@21_polysilicon-1##14)	voltage
	135	V(net@6#3pin@21_polysilicon-1##15)	voltage
	136	V(net@6#3pin@21_polysilicon-1##16)	voltage
	137	V(net@6#3pin@21_polysilicon-1##17)	voltage
	138	V(net@6#3pin@21_polysilicon-1##18)	voltage
	139	V(net@6##0)	voltage
	140	V(net@6##1)	voltage
	141	V(net@6##2)	voltage
	142	V(net@6##3)	voltage
	143	V(net@6##4)	voltage
	144	V(net@6##5)	voltage
	145	V(net@6##6)	voltage
	146	V(net@6##7)	voltage
	147	V(net@6##8)	voltage
	148	V(net@6##9)	voltage
	149	V(net@6##10)	voltage
	150	V(net@6##11)	voltage
	151	V(net@6##12)	voltage
	152	V(net@6##13)	voltage
	153	V(net@6##14)	voltage
	154	V(net@6##15)	voltage
	155	V(net@6##16)	voltage
	156	V(net@6##17)	voltage
	157	V(net@6##18)	voltage
	158	V(net@6##19)	voltage
	159	V(net@6##20)	voltage
	160	V(net@6##21)	voltage
	161	V(net@6##22)	voltage
	162	V(net@6##23)	voltage
	163	V(net@6##24)	voltage
	164	V(net@6##25)	voltage
	165	V(net@6##26)	voltage
	166	V(net@6##27)	voltage
	167	V(net@6##28)	voltage
	168	V(a#2nmos@5_poly-right##0)	voltage
	169	V(a#2nmos@5_poly-right##1)	voltage
	170	V(a#2nmos@5_poly-right##2)	voltage
	171	V(a#2nmos@5_poly-right##3)	voltage
	172	V(a#2nmos@5_poly-right##4)	voltage
	173	V(a#2nmos@5_poly-right##5)	voltage
	174	V(a#2nmos@5_poly-right##6)	voltage
	175	V(a#2nmos@5_poly-right##7)	voltage
	176	V(a#2nmos@5_poly-right##8)	voltage
	177	V(a#2nmos@5_poly-right##9)	voltage
	178	V(a#2nmos@5_poly-right##10)	voltage
	179	V(a#2nmos@5_poly-right##11)	voltage
	180	V(a#2nmos@5_poly-right##12)	voltage
	181	V(a#2nmos@5_poly-right##13)	voltage
	182	V(a#2nmos@5_poly-right##14)	voltage
	183	V(a#2nmos@5_poly-right##15)	voltage
	184	V(a#2nmos@5_poly-right##16)	voltage
	185	V(a#2nmos@5_poly-right##17)	voltage
	186	V(a#2nmos@5_poly-right##18)	voltage
	187	V(a#2nmos@5_poly-right##19)	voltage
	188	V(a#2nmos@5_poly-right##20)	voltage
	189	V(a#2nmos@5_poly-right##21)	voltage
	190	V(a#2nmos@5_poly-right##22)	voltage
	191	V(a#3pin@23_polysilicon-1##0)	voltage
	192	V(a#3pin@23_polysilicon-1##1)	voltage
	193	V(a#3pin@23_polysilicon-1##2)	voltage
	194	V(b#8nmos@4_poly-right##0)	voltage
	195	V(b#9pin@13_polysilicon-1##0)	voltage
	196	V(b#9pin@13_polysilicon-1##1)	voltage
	197	V(b#9pin@13_polysilicon-1##2)	voltage
	198	V(b#9pin@13_polysilicon-1##3)	voltage
	199	V(b#9pin@13_polysilicon-1##4)	voltage
	200	V(b#9pin@13_polysilicon-1##5)	voltage
	201	V(b#9pin@13_polysilicon-1##6)	voltage
	202	V(b#9pin@13_polysilicon-1##7)	voltage
	203	V(b#9pin@13_polysilicon-1##8)	voltage
	204	V(b#9pin@13_polysilicon-1##9)	voltage
	205	V(b#9pin@13_polysilicon-1##10)	voltage
	206	V(b#9pin@13_polysilicon-1##11)	voltage
	207	V(b#9pin@13_polysilicon-1##12)	voltage
	208	V(b#9pin@13_polysilicon-1##13)	voltage
	209	V(b#9pin@13_polysilicon-1##14)	voltage
	210	V(b#9pin@13_polysilicon-1##15)	voltage
	211	V(b#9pin@13_polysilicon-1##16)	voltage
	212	V(b#9pin@13_polysilicon-1##17)	voltage
	213	V(b#9pin@13_polysilicon-1##18)	voltage
	214	V(b#9pin@13_polysilicon-1##19)	voltage
	215	V(b#9pin@13_polysilicon-1##20)	voltage
	216	V(b#9pin@13_polysilicon-1##21)	voltage
	217	V(b#9pin@13_polysilicon-1##22)	voltage
	218	V(b##0)	voltage
	219	V(b##1)	voltage
	220	V(b##2)	voltage
	221	V(b##3)	voltage
	222	V(a#8pmos@0_poly-left##0)	voltage
	223	V(a#8pmos@0_poly-left##1)	voltage
	224	V(a#8pmos@0_poly-left##2)	voltage
	225	V(net@23#4nmos@6_poly-right##0)	voltage
	226	V(net@23#4nmos@6_poly-right##1)	voltage
	227	V(net@23#5pin@15_polysilicon-1##0)	voltage
	228	V(net@23#5pin@15_polysilicon-1##1)	voltage
	229	V(net@23#5pin@15_polysilicon-1##2)	voltage
	230	V(net@23#5pin@15_polysilicon-1##3)	voltage
	231	V(net@23#5pin@15_polysilicon-1##4)	voltage
	232	V(net@23#5pin@15_polysilicon-1##5)	voltage
	233	V(net@23#5pin@15_polysilicon-1##6)	voltage
	234	V(net@23#5pin@15_polysilicon-1##7)	voltage
	235	V(net@23#5pin@15_polysilicon-1##8)	voltage
	236	V(net@23#5pin@15_polysilicon-1##9)	voltage
	237	V(net@23#5pin@15_polysilicon-1##10)	voltage
	238	V(net@23#5pin@15_polysilicon-1##11)	voltage
	239	V(net@23#5pin@15_polysilicon-1##12)	voltage
	240	V(net@23#5pin@15_polysilicon-1##13)	voltage
	241	V(net@23#5pin@15_polysilicon-1##14)	voltage
	242	V(net@23#5pin@15_polysilicon-1##15)	voltage
	243	V(net@23#5pin@15_polysilicon-1##16)	voltage
	244	V(net@23#5pin@15_polysilicon-1##17)	voltage
	245	V(net@23#5pin@15_polysilicon-1##18)	voltage
	246	V(net@23#5pin@15_polysilicon-1##19)	voltage
	247	V(net@23#5pin@15_polysilicon-1##20)	voltage
	248	V(net@23#5pin@15_polysilicon-1##21)	voltage
	249	V(net@23##0)	voltage
	250	V(net@23##1)	voltage
	251	V(net@23##2)	voltage
	252	V(net@23##3)	voltage
	253	V(a##0)	voltage
	254	V(a##1)	voltage
	255	V(net@3#8nmos@3_poly-right##0)	voltage
	256	V(net@3#8nmos@3_poly-right##1)	voltage
	257	V(net@3#8nmos@3_poly-right##2)	voltage
	258	V(net@3#8nmos@3_poly-right##3)	voltage
	259	V(net@3#8nmos@3_poly-right##4)	voltage
	260	V(net@3#8nmos@3_poly-right##5)	voltage
	261	V(net@3#8nmos@3_poly-right##6)	voltage
	262	V(net@3#8nmos@3_poly-right##7)	voltage
	263	V(net@3#8nmos@3_poly-right##8)	voltage
	264	V(net@3#8nmos@3_poly-right##9)	voltage
	265	V(net@3#8nmos@3_poly-right##10)	voltage
	266	V(net@3#8nmos@3_poly-right##11)	voltage
	267	V(net@3#8nmos@3_poly-right##12)	voltage
	268	V(net@3#8nmos@3_poly-right##13)	voltage
	269	V(net@3#8nmos@3_poly-right##14)	voltage
	270	V(net@3#8nmos@3_poly-right##15)	voltage
	271	V(net@3#8nmos@3_poly-right##16)	voltage
	272	V(net@3#8nmos@3_poly-right##17)	voltage
	273	V(net@3#8nmos@3_poly-right##18)	voltage
	274	V(net@3#8nmos@3_poly-right##19)	voltage
	275	V(net@3#8nmos@3_poly-right##20)	voltage
	276	V(net@3#8nmos@3_poly-right##21)	voltage
	277	V(net@3#8nmos@3_poly-right##22)	voltage
	278	V(net@3#8nmos@3_poly-right##23)	voltage
	279	V(b#11nmos@2_poly-right##0)	voltage
	280	V(b#11nmos@2_poly-right##1)	voltage
	281	V(b#11nmos@2_poly-right##2)	voltage
	282	V(b#11nmos@2_poly-right##3)	voltage
	283	V(b#11nmos@2_poly-right##4)	voltage
	284	V(b#11nmos@2_poly-right##5)	voltage
	285	V(b#11nmos@2_poly-right##6)	voltage
	286	V(b#11nmos@2_poly-right##7)	voltage
	287	V(b#11nmos@2_poly-right##8)	voltage
	288	V(b#11nmos@2_poly-right##9)	voltage
	289	V(b#11nmos@2_poly-right##10)	voltage
	290	V(b#11nmos@2_poly-right##11)	voltage
	291	V(b#11nmos@2_poly-right##12)	voltage
	292	V(b#11nmos@2_poly-right##13)	voltage
	293	V(b#11nmos@2_poly-right##14)	voltage
	294	V(b#11nmos@2_poly-right##15)	voltage
	295	V(b#11nmos@2_poly-right##16)	voltage
	296	V(b#11nmos@2_poly-right##17)	voltage
	297	V(b#11nmos@2_poly-right##18)	voltage
	298	V(b#11nmos@2_poly-right##19)	voltage
	299	V(b#11nmos@2_poly-right##20)	voltage
	300	V(b#11nmos@2_poly-right##21)	voltage
	301	V(b#11nmos@2_poly-right##22)	voltage
	302	V(b#11nmos@2_poly-right##23)	voltage
	303	V(net@6#9nmos@1_poly-right##0)	voltage
	304	V(net@6#9nmos@1_poly-right##1)	voltage
	305	V(net@6#9nmos@1_poly-right##2)	voltage
	306	V(net@6#9nmos@1_poly-right##3)	voltage
	307	V(net@6#9nmos@1_poly-right##4)	voltage
	308	V(net@6#9nmos@1_poly-right##5)	voltage
	309	V(net@6#9nmos@1_poly-right##6)	voltage
	310	V(net@6#9nmos@1_poly-right##7)	voltage
	311	V(net@6#9nmos@1_poly-right##8)	voltage
	312	V(net@6#9nmos@1_poly-right##9)	voltage
	313	V(net@6#9nmos@1_poly-right##10)	voltage
	314	V(net@6#9nmos@1_poly-right##11)	voltage
	315	V(net@6#9nmos@1_poly-right##12)	voltage
	316	V(net@6#9nmos@1_poly-right##13)	voltage
	317	V(net@6#9nmos@1_poly-right##14)	voltage
	318	V(net@6#9nmos@1_poly-right##15)	voltage
	319	V(net@6#9nmos@1_poly-right##16)	voltage
	320	V(net@6#9nmos@1_poly-right##17)	voltage
	321	V(net@6#9nmos@1_poly-right##18)	voltage
	322	V(net@6#9nmos@1_poly-right##19)	voltage
	323	V(net@6#9nmos@1_poly-right##20)	voltage
	324	V(net@6#9nmos@1_poly-right##21)	voltage
	325	V(net@6#9nmos@1_poly-right##22)	voltage
	326	V(net@6#9nmos@1_poly-right##23)	voltage
	327	V(a#12nmos@0_poly-right##0)	voltage
	328	V(a#12nmos@0_poly-right##1)	voltage
	329	V(a#12nmos@0_poly-right##2)	voltage
	330	V(a#12nmos@0_poly-right##3)	voltage
	331	V(a#12nmos@0_poly-right##4)	voltage
	332	V(a#12nmos@0_poly-right##5)	voltage
	333	V(a#12nmos@0_poly-right##6)	voltage
	334	V(a#12nmos@0_poly-right##7)	voltage
	335	V(a#12nmos@0_poly-right##8)	voltage
	336	V(a#12nmos@0_poly-right##9)	voltage
	337	V(a#12nmos@0_poly-right##10)	voltage
	338	V(a#12nmos@0_poly-right##11)	voltage
	339	V(a#12nmos@0_poly-right##12)	voltage
	340	V(a#12nmos@0_poly-right##13)	voltage
	341	V(a#12nmos@0_poly-right##14)	voltage
	342	V(a#12nmos@0_poly-right##15)	voltage
	343	V(a#12nmos@0_poly-right##16)	voltage
	344	V(a#12nmos@0_poly-right##17)	voltage
	345	V(a#12nmos@0_poly-right##18)	voltage
	346	V(a#12nmos@0_poly-right##19)	voltage
	347	V(a#12nmos@0_poly-right##20)	voltage
	348	V(a#12nmos@0_poly-right##21)	voltage
	349	V(a#12nmos@0_poly-right##22)	voltage
	350	V(a#12nmos@0_poly-right##23)	voltage
	351	V(a#9pin@10_polysilicon-1##0)	voltage
	352	V(a#9pin@10_polysilicon-1##1)	voltage
	353	V(net@101##0)	voltage
	354	V(net@101##1)	voltage
	355	V(net@101##2)	voltage
	356	V(net@101##3)	voltage
	357	V(net@101##4)	voltage
	358	V(net@101##5)	voltage
	359	V(net@101##6)	voltage
	360	V(net@101##7)	voltage
	361	V(net@101##8)	voltage
	362	V(net@101##9)	voltage
	363	V(net@101##10)	voltage
	364	V(net@101##11)	voltage
	365	V(net@101##12)	voltage
	366	V(net@101##13)	voltage
	367	V(net@101##14)	voltage
	368	V(net@101##15)	voltage
	369	V(net@101##16)	voltage
	370	V(net@101##17)	voltage
	371	V(net@101##18)	voltage
	372	V(net@101#2contact@66_metal-1-polysilicon-1##0)	voltage
	373	V(net@101#2contact@66_metal-1-polysilicon-1##1)	voltage
	374	V(net@101#2contact@66_metal-1-polysilicon-1##2)	voltage
	375	V(net@101#2contact@66_metal-1-polysilicon-1##3)	voltage
	376	V(net@101#2contact@66_metal-1-polysilicon-1##4)	voltage
	377	V(net@101#2contact@66_metal-1-polysilicon-1##5)	voltage
	378	V(net@101#2contact@66_metal-1-polysilicon-1##6)	voltage
	379	V(net@101#2contact@66_metal-1-polysilicon-1##7)	voltage
	380	V(net@101#2contact@66_metal-1-polysilicon-1##8)	voltage
	381	V(net@101#2contact@66_metal-1-polysilicon-1##9)	voltage
	382	V(net@101#2contact@66_metal-1-polysilicon-1##10)	voltage
	383	V(net@101#2contact@66_metal-1-polysilicon-1##11)	voltage
	384	V(net@101#2contact@66_metal-1-polysilicon-1##12)	voltage
	385	V(net@101#2contact@66_metal-1-polysilicon-1##13)	voltage
	386	V(net@101#2contact@66_metal-1-polysilicon-1##14)	voltage
	387	V(net@101#2contact@66_metal-1-polysilicon-1##15)	voltage
	388	V(net@101#2contact@66_metal-1-polysilicon-1##16)	voltage
	389	V(net@101#2contact@66_metal-1-polysilicon-1##17)	voltage
	390	V(net@101#2contact@66_metal-1-polysilicon-1##18)	voltage
	391	V(net@101#2contact@66_metal-1-polysilicon-1##19)	voltage
	392	V(net@101#2contact@66_metal-1-polysilicon-1##20)	voltage
	393	V(net@101#2contact@66_metal-1-polysilicon-1##21)	voltage
	394	V(net@101#2contact@66_metal-1-polysilicon-1##22)	voltage
	395	V(net@101#2contact@66_metal-1-polysilicon-1##23)	voltage
	396	V(net@101#2contact@66_metal-1-polysilicon-1##24)	voltage
	397	V(net@101#2contact@66_metal-1-polysilicon-1##25)	voltage
	398	V(net@101#2contact@66_metal-1-polysilicon-1##26)	voltage
	399	V(net@101#2contact@66_metal-1-polysilicon-1##27)	voltage
	400	V(net@101#2contact@66_metal-1-polysilicon-1##28)	voltage
	401	V(xor1_to_nand1#9nmos@12_poly-right##0)	voltage
	402	V(xor1_to_nand1#9nmos@12_poly-right##1)	voltage
	403	V(xor1_to_nand1#9nmos@12_poly-right##2)	voltage
	404	V(xor1_to_nand1#9nmos@12_poly-right##3)	voltage
	405	V(xor1_to_nand1#9nmos@12_poly-right##4)	voltage
	406	V(xor1_to_nand1#9nmos@12_poly-right##5)	voltage
	407	V(xor1_to_nand1#9nmos@12_poly-right##6)	voltage
	408	V(xor1_to_nand1#9nmos@12_poly-right##7)	voltage
	409	V(xor1_to_nand1#9nmos@12_poly-right##8)	voltage
	410	V(xor1_to_nand1#9nmos@12_poly-right##9)	voltage
	411	V(xor1_to_nand1#9nmos@12_poly-right##10)	voltage
	412	V(xor1_to_nand1#9nmos@12_poly-right##11)	voltage
	413	V(xor1_to_nand1#9nmos@12_poly-right##12)	voltage
	414	V(xor1_to_nand1#9nmos@12_poly-right##13)	voltage
	415	V(xor1_to_nand1#9nmos@12_poly-right##14)	voltage
	416	V(xor1_to_nand1#9nmos@12_poly-right##15)	voltage
	417	V(xor1_to_nand1#9nmos@12_poly-right##16)	voltage
	418	V(xor1_to_nand1#9nmos@12_poly-right##17)	voltage
	419	V(xor1_to_nand1#9nmos@12_poly-right##18)	voltage
	420	V(xor1_to_nand1#9nmos@12_poly-right##19)	voltage
	421	V(xor1_to_nand1#9nmos@12_poly-right##20)	voltage
	422	V(xor1_to_nand1#9nmos@12_poly-right##21)	voltage
	423	V(xor1_to_nand1#9nmos@12_poly-right##22)	voltage
	424	V(xor1_to_nand1#10pin@50_polysilicon-1##0)	voltage
	425	V(xor1_to_nand1#10pin@50_polysilicon-1##1)	voltage
	426	V(xor1_to_nand1#10pin@50_polysilicon-1##2)	voltage
	427	V(cin#5nmos@11_poly-right##0)	voltage
	428	V(cin#6pin@40_polysilicon-1##0)	voltage
	429	V(cin#6pin@40_polysilicon-1##1)	voltage
	430	V(cin#6pin@40_polysilicon-1##2)	voltage
	431	V(cin#6pin@40_polysilicon-1##3)	voltage
	432	V(cin#6pin@40_polysilicon-1##4)	voltage
	433	V(cin#6pin@40_polysilicon-1##5)	voltage
	434	V(cin#6pin@40_polysilicon-1##6)	voltage
	435	V(cin#6pin@40_polysilicon-1##7)	voltage
	436	V(cin#6pin@40_polysilicon-1##8)	voltage
	437	V(cin#6pin@40_polysilicon-1##9)	voltage
	438	V(cin#6pin@40_polysilicon-1##10)	voltage
	439	V(cin#6pin@40_polysilicon-1##11)	voltage
	440	V(cin#6pin@40_polysilicon-1##12)	voltage
	441	V(cin#6pin@40_polysilicon-1##13)	voltage
	442	V(cin#6pin@40_polysilicon-1##14)	voltage
	443	V(cin#6pin@40_polysilicon-1##15)	voltage
	444	V(cin#6pin@40_polysilicon-1##16)	voltage
	445	V(cin#6pin@40_polysilicon-1##17)	voltage
	446	V(cin#6pin@40_polysilicon-1##18)	voltage
	447	V(cin#6pin@40_polysilicon-1##19)	voltage
	448	V(cin#6pin@40_polysilicon-1##20)	voltage
	449	V(cin#6pin@40_polysilicon-1##21)	voltage
	450	V(cin#6pin@40_polysilicon-1##22)	voltage
	451	V(cin#0pin@55_metal-2##0)	voltage
	452	V(cin#0pin@55_metal-2##1)	voltage
	453	V(cin#0pin@55_metal-2##2)	voltage
	454	V(cin#0pin@55_metal-2##3)	voltage
	455	V(xor1_to_nand1#16pmos@7_poly-left##0)	voltage
	456	V(xor1_to_nand1#16pmos@7_poly-left##1)	voltage
	457	V(xor1_to_nand1#16pmos@7_poly-left##2)	voltage
	458	V(cin#8pin@30_polysilicon-1##0)	voltage
	459	V(cin#8pin@30_polysilicon-1##1)	voltage
	460	V(cin#8pin@30_polysilicon-1##2)	voltage
	461	V(cin#8pin@30_polysilicon-1##3)	voltage
	462	V(cin#8pin@30_polysilicon-1##4)	voltage
	463	V(cin#8pin@30_polysilicon-1##5)	voltage
	464	V(cin#8pin@30_polysilicon-1##6)	voltage
	465	V(cin#8pin@30_polysilicon-1##7)	voltage
	466	V(cin#8pin@30_polysilicon-1##8)	voltage
	467	V(cin#8pin@30_polysilicon-1##9)	voltage
	468	V(cin#8pin@30_polysilicon-1##10)	voltage
	469	V(cin#8pin@30_polysilicon-1##11)	voltage
	470	V(cin#8pin@30_polysilicon-1##12)	voltage
	471	V(cin#8pin@30_polysilicon-1##13)	voltage
	472	V(cin#8pin@30_polysilicon-1##14)	voltage
	473	V(cin#8pin@30_polysilicon-1##15)	voltage
	474	V(cin#8pin@30_polysilicon-1##16)	voltage
	475	V(cin#8pin@30_polysilicon-1##17)	voltage
	476	V(cin#8pin@30_polysilicon-1##18)	voltage
	477	V(net@115#4nmos@13_poly-right##0)	voltage
	478	V(net@115#4nmos@13_poly-right##1)	voltage
	479	V(net@115#5pin@42_polysilicon-1##0)	voltage
	480	V(net@115#5pin@42_polysilicon-1##1)	voltage
	481	V(net@115#5pin@42_polysilicon-1##2)	voltage
	482	V(net@115#5pin@42_polysilicon-1##3)	voltage
	483	V(net@115#5pin@42_polysilicon-1##4)	voltage
	484	V(net@115#5pin@42_polysilicon-1##5)	voltage
	485	V(net@115#5pin@42_polysilicon-1##6)	voltage
	486	V(net@115#5pin@42_polysilicon-1##7)	voltage
	487	V(net@115#5pin@42_polysilicon-1##8)	voltage
	488	V(net@115#5pin@42_polysilicon-1##9)	voltage
	489	V(net@115#5pin@42_polysilicon-1##10)	voltage
	490	V(net@115#5pin@42_polysilicon-1##11)	voltage
	491	V(net@115#5pin@42_polysilicon-1##12)	voltage
	492	V(net@115#5pin@42_polysilicon-1##13)	voltage
	493	V(net@115#5pin@42_polysilicon-1##14)	voltage
	494	V(net@115#5pin@42_polysilicon-1##15)	voltage
	495	V(net@115#5pin@42_polysilicon-1##16)	voltage
	496	V(net@115#5pin@42_polysilicon-1##17)	voltage
	497	V(net@115#5pin@42_polysilicon-1##18)	voltage
	498	V(net@115#5pin@42_polysilicon-1##19)	voltage
	499	V(net@115#5pin@42_polysilicon-1##20)	voltage
	500	V(net@115##0)	voltage
	501	V(net@115##1)	voltage
	502	V(net@115##2)	voltage
	503	V(net@115##3)	voltage
	504	V(xor1_to_nand1#1contact@90_metal-1-metal-2##0)	voltage
	505	V(xor1_to_nand1#1contact@90_metal-1-metal-2##1)	voltage
	506	V(net@117#8nmos@10_poly-right##0)	voltage
	507	V(net@117#8nmos@10_poly-right##1)	voltage
	508	V(net@117#8nmos@10_poly-right##2)	voltage
	509	V(net@117#8nmos@10_poly-right##3)	voltage
	510	V(net@117#8nmos@10_poly-right##4)	voltage
	511	V(net@117#8nmos@10_poly-right##5)	voltage
	512	V(net@117#8nmos@10_poly-right##6)	voltage
	513	V(net@117#8nmos@10_poly-right##7)	voltage
	514	V(net@117#8nmos@10_poly-right##8)	voltage
	515	V(net@117#8nmos@10_poly-right##9)	voltage
	516	V(net@117#8nmos@10_poly-right##10)	voltage
	517	V(net@117#8nmos@10_poly-right##11)	voltage
	518	V(net@117#8nmos@10_poly-right##12)	voltage
	519	V(net@117#8nmos@10_poly-right##13)	voltage
	520	V(net@117#8nmos@10_poly-right##14)	voltage
	521	V(net@117#8nmos@10_poly-right##15)	voltage
	522	V(net@117#8nmos@10_poly-right##16)	voltage
	523	V(net@117#8nmos@10_poly-right##17)	voltage
	524	V(net@117#8nmos@10_poly-right##18)	voltage
	525	V(net@117#8nmos@10_poly-right##19)	voltage
	526	V(net@117#8nmos@10_poly-right##20)	voltage
	527	V(net@117#8nmos@10_poly-right##21)	voltage
	528	V(net@117#8nmos@10_poly-right##22)	voltage
	529	V(net@117#8nmos@10_poly-right##23)	voltage
	530	V(cin#10nmos@9_poly-right##0)	voltage
	531	V(cin#10nmos@9_poly-right##1)	voltage
	532	V(cin#10nmos@9_poly-right##2)	voltage
	533	V(cin#10nmos@9_poly-right##3)	voltage
	534	V(cin#10nmos@9_poly-right##4)	voltage
	535	V(cin#10nmos@9_poly-right##5)	voltage
	536	V(cin#10nmos@9_poly-right##6)	voltage
	537	V(cin#10nmos@9_poly-right##7)	voltage
	538	V(cin#10nmos@9_poly-right##8)	voltage
	539	V(cin#10nmos@9_poly-right##9)	voltage
	540	V(cin#10nmos@9_poly-right##10)	voltage
	541	V(cin#10nmos@9_poly-right##11)	voltage
	542	V(cin#10nmos@9_poly-right##12)	voltage
	543	V(cin#10nmos@9_poly-right##13)	voltage
	544	V(cin#10nmos@9_poly-right##14)	voltage
	545	V(cin#10nmos@9_poly-right##15)	voltage
	546	V(cin#10nmos@9_poly-right##16)	voltage
	547	V(cin#10nmos@9_poly-right##17)	voltage
	548	V(cin#10nmos@9_poly-right##18)	voltage
	549	V(cin#10nmos@9_poly-right##19)	voltage
	550	V(cin#10nmos@9_poly-right##20)	voltage
	551	V(cin#10nmos@9_poly-right##21)	voltage
	552	V(cin#10nmos@9_poly-right##22)	voltage
	553	V(cin#10nmos@9_poly-right##23)	voltage
	554	V(net@101#7nmos@8_poly-right##0)	voltage
	555	V(net@101#7nmos@8_poly-right##1)	voltage
	556	V(net@101#7nmos@8_poly-right##2)	voltage
	557	V(net@101#7nmos@8_poly-right##3)	voltage
	558	V(net@101#7nmos@8_poly-right##4)	voltage
	559	V(net@101#7nmos@8_poly-right##5)	voltage
	560	V(net@101#7nmos@8_poly-right##6)	voltage
	561	V(net@101#7nmos@8_poly-right##7)	voltage
	562	V(net@101#7nmos@8_poly-right##8)	voltage
	563	V(net@101#7nmos@8_poly-right##9)	voltage
	564	V(net@101#7nmos@8_poly-right##10)	voltage
	565	V(net@101#7nmos@8_poly-right##11)	voltage
	566	V(net@101#7nmos@8_poly-right##12)	voltage
	567	V(net@101#7nmos@8_poly-right##13)	voltage
	568	V(net@101#7nmos@8_poly-right##14)	voltage
	569	V(net@101#7nmos@8_poly-right##15)	voltage
	570	V(net@101#7nmos@8_poly-right##16)	voltage
	571	V(net@101#7nmos@8_poly-right##17)	voltage
	572	V(net@101#7nmos@8_poly-right##18)	voltage
	573	V(net@101#7nmos@8_poly-right##19)	voltage
	574	V(net@101#7nmos@8_poly-right##20)	voltage
	575	V(net@101#7nmos@8_poly-right##21)	voltage
	576	V(net@101#7nmos@8_poly-right##22)	voltage
	577	V(net@101#7nmos@8_poly-right##23)	voltage
	578	V(xor1_to_nand1#20nmos@7_poly-right##0)	voltage
	579	V(xor1_to_nand1#20nmos@7_poly-right##1)	voltage
	580	V(xor1_to_nand1#20nmos@7_poly-right##2)	voltage
	581	V(xor1_to_nand1#20nmos@7_poly-right##3)	voltage
	582	V(xor1_to_nand1#20nmos@7_poly-right##4)	voltage
	583	V(xor1_to_nand1#20nmos@7_poly-right##5)	voltage
	584	V(xor1_to_nand1#20nmos@7_poly-right##6)	voltage
	585	V(xor1_to_nand1#20nmos@7_poly-right##7)	voltage
	586	V(xor1_to_nand1#20nmos@7_poly-right##8)	voltage
	587	V(xor1_to_nand1#20nmos@7_poly-right##9)	voltage
	588	V(xor1_to_nand1#20nmos@7_poly-right##10)	voltage
	589	V(xor1_to_nand1#20nmos@7_poly-right##11)	voltage
	590	V(xor1_to_nand1#20nmos@7_poly-right##12)	voltage
	591	V(xor1_to_nand1#20nmos@7_poly-right##13)	voltage
	592	V(xor1_to_nand1#20nmos@7_poly-right##14)	voltage
	593	V(xor1_to_nand1#20nmos@7_poly-right##15)	voltage
	594	V(xor1_to_nand1#20nmos@7_poly-right##16)	voltage
	595	V(xor1_to_nand1#20nmos@7_poly-right##17)	voltage
	596	V(xor1_to_nand1#20nmos@7_poly-right##18)	voltage
	597	V(xor1_to_nand1#20nmos@7_poly-right##19)	voltage
	598	V(xor1_to_nand1#20nmos@7_poly-right##20)	voltage
	599	V(xor1_to_nand1#20nmos@7_poly-right##21)	voltage
	600	V(xor1_to_nand1#20nmos@7_poly-right##22)	voltage
	601	V(xor1_to_nand1#20nmos@7_poly-right##23)	voltage
	602	V(xor1_to_nand1#17pin@37_polysilicon-1##0)	voltage
	603	V(xor1_to_nand1#17pin@37_polysilicon-1##1)	voltage
	604	V(cin#9pin@47_polysilicon-1##0)	voltage
	605	V(cin#9pin@47_polysilicon-1##1)	voltage
	606	V(cin#9pin@47_polysilicon-1##2)	voltage
	607	V(cin#9pin@47_polysilicon-1##3)	voltage
	608	V(cin#9pin@47_polysilicon-1##4)	voltage
	609	V(cin#9pin@47_polysilicon-1##5)	voltage
	610	V(net@101#8pmos@8_poly-right##0)	voltage
	611	V(xor1_to_nand1##0)	voltage
	612	V(xor1_to_nand1##1)	voltage
	613	V(xor1_to_nand1#25pmos@14_poly-right##0)	voltage
	614	V(xor1_to_nand1#26nmos@14_poly-right##0)	voltage
	615	V(xor1_to_nand1#26nmos@14_poly-right##1)	voltage
	616	V(xor1_to_nand1#26nmos@14_poly-right##2)	voltage
	617	V(xor1_to_nand1#26nmos@14_poly-right##3)	voltage
	618	V(xor1_to_nand1#26nmos@14_poly-right##4)	voltage
	619	V(xor1_to_nand1#26nmos@14_poly-right##5)	voltage
	620	V(xor1_to_nand1#26nmos@14_poly-right##6)	voltage
	621	V(xor1_to_nand1#26nmos@14_poly-right##7)	voltage
	622	V(xor1_to_nand1#26nmos@14_poly-right##8)	voltage
	623	V(xor1_to_nand1#26nmos@14_poly-right##9)	voltage
	624	V(xor1_to_nand1#26nmos@14_poly-right##10)	voltage
	625	V(xor1_to_nand1#26nmos@14_poly-right##11)	voltage
	626	V(xor1_to_nand1#26nmos@14_poly-right##12)	voltage
	627	V(xor1_to_nand1#26nmos@14_poly-right##13)	voltage
	628	V(xor1_to_nand1#26nmos@14_poly-right##14)	voltage
	629	V(xor1_to_nand1#26nmos@14_poly-right##15)	voltage
	630	V(xor1_to_nand1#26nmos@14_poly-right##16)	voltage
	631	V(xor1_to_nand1#26nmos@14_poly-right##17)	voltage
	632	V(xor1_to_nand1#26nmos@14_poly-right##18)	voltage
	633	V(xor1_to_nand1#26nmos@14_poly-right##19)	voltage
	634	V(xor1_to_nand1#26nmos@14_poly-right##20)	voltage
	635	V(xor1_to_nand1#26nmos@14_poly-right##21)	voltage
	636	V(xor1_to_nand1#26nmos@14_poly-right##22)	voltage
	637	V(cin#17pmos@15_poly-right##0)	voltage
	638	V(cin#17pmos@15_poly-right##1)	voltage
	639	V(cin#17pmos@15_poly-right##2)	voltage
	640	V(cin#17pmos@15_poly-right##3)	voltage
	641	V(cin#17pmos@15_poly-right##4)	voltage
	642	V(cin#17pmos@15_poly-right##5)	voltage
	643	V(cin#17pmos@15_poly-right##6)	voltage
	644	V(cin#17pmos@15_poly-right##7)	voltage
	645	V(cin#17pmos@15_poly-right##8)	voltage
	646	V(cin#17pmos@15_poly-right##9)	voltage
	647	V(cin#17pmos@15_poly-right##10)	voltage
	648	V(cin#17pmos@15_poly-right##11)	voltage
	649	V(cin#17pmos@15_poly-right##12)	voltage
	650	V(cin#17pmos@15_poly-right##13)	voltage
	651	V(cin#17pmos@15_poly-right##14)	voltage
	652	V(cin#17pmos@15_poly-right##15)	voltage
	653	V(cin#17pmos@15_poly-right##16)	voltage
	654	V(cin#17pmos@15_poly-right##17)	voltage
	655	V(cin#18pin@71_polysilicon-1##0)	voltage
	656	V(cin#18pin@71_polysilicon-1##1)	voltage
	657	V(cin#18pin@71_polysilicon-1##2)	voltage
	658	V(a#0contact@98_metal-1-metal-2##0)	voltage
	659	V(a#0contact@98_metal-1-metal-2##1)	voltage
	660	V(a#16pmos@16_poly-right##0)	voltage
	661	V(a#16pmos@16_poly-right##1)	voltage
	662	V(a#16pmos@16_poly-right##2)	voltage
	663	V(a#16pmos@16_poly-right##3)	voltage
	664	V(a#16pmos@16_poly-right##4)	voltage
	665	V(a#17nmos@16_poly-right##0)	voltage
	666	V(a#17nmos@16_poly-right##1)	voltage
	667	V(a#17nmos@16_poly-right##2)	voltage
	668	V(a#17nmos@16_poly-right##3)	voltage
	669	V(a#17nmos@16_poly-right##4)	voltage
	670	V(a#17nmos@16_poly-right##5)	voltage
	671	V(a#17nmos@16_poly-right##6)	voltage
	672	V(a#17nmos@16_poly-right##7)	voltage
	673	V(a#17nmos@16_poly-right##8)	voltage
	674	V(a#17nmos@16_poly-right##9)	voltage
	675	V(a#17nmos@16_poly-right##10)	voltage
	676	V(a#17nmos@16_poly-right##11)	voltage
	677	V(a#17nmos@16_poly-right##12)	voltage
	678	V(a#17nmos@16_poly-right##13)	voltage