Title: *** SPICE deck for cell MUX_16_1_TG_2{lay} from library MUX_16_1
Date: Mon May 11 00:47:18 2020
Plotname: Operating Point
Flags: real
No. Variables: 3269
No. Points:            1
Offset:   0.0000000000000000e+000
Command: Linear Technology Corporation LTspice IV
Variables:
	0	V(net@25)	voltage
	1	V(net@26#7nmos@0_poly-right)	voltage
	2	V(i4)	voltage
	3	V(net@26)	voltage
	4	V(s1#49nmos@1_poly-right)	voltage
	5	V(s1#6nmos@2_poly-left)	voltage
	6	V(i6)	voltage
	7	V(net@43)	voltage
	8	V(net@27#11nmos@3_poly-right)	voltage
	9	V(i5)	voltage
	10	V(net@27#4contact@26_metal-1-n-act)	voltage
	11	V(s1#13nmos@4_poly-right)	voltage
	12	V(s1#52nmos@5_poly-left)	voltage
	13	V(i7)	voltage
	14	V(net@39)	voltage
	15	V(net@122#8nmos@6_poly-right)	voltage
	16	V(net@122)	voltage
	17	V(s2#8nmos@7_poly-right)	voltage
	18	V(s2#25nmos@8_poly-left)	voltage
	19	V(net@129)	voltage
	20	V(net@130#7nmos@9_poly-right)	voltage
	21	V(i0)	voltage
	22	V(net@130)	voltage
	23	V(s1#40nmos@10_poly-right)	voltage
	24	V(s1#26nmos@11_poly-left)	voltage
	25	V(i2)	voltage
	26	V(net@148)	voltage
	27	V(net@131#11nmos@12_poly-right)	voltage
	28	V(i1)	voltage
	29	V(net@131#4contact@95_metal-1-n-act)	voltage
	30	V(s1#33nmos@13_poly-right)	voltage
	31	V(s1#43nmos@14_poly-left)	voltage
	32	V(i3)	voltage
	33	V(net@224)	voltage
	34	V(net@235#8nmos@15_poly-right)	voltage
	35	V(net@235)	voltage
	36	V(s2#6nmos@16_poly-right)	voltage
	37	V(s2#18nmos@17_poly-left)	voltage
	38	V(net@374)	voltage
	39	V(net@375#6nmos@18_poly-right)	voltage
	40	V(net@375)	voltage
	41	V(s0#2nmos@19_poly-right)	voltage
	42	V(s0#10nmos@20_poly-left)	voltage
	43	V(net@525)	voltage
	44	V(net@556#8nmos@21_poly-right)	voltage
	45	V(i12)	voltage
	46	V(net@556)	voltage
	47	V(s1#92nmos@22_poly-right)	voltage
	48	V(s1#104nmos@23_poly-left)	voltage
	49	V(i13)	voltage
	50	V(net@516)	voltage
	51	V(net@517#5nmos@24_poly-right)	voltage
	52	V(i14)	voltage
	53	V(net@517)	voltage
	54	V(s1#108nmos@25_poly-right)	voltage
	55	V(s1#96nmos@26_poly-left)	voltage
	56	V(i15)	voltage
	57	V(net@526)	voltage
	58	V(net@514#8nmos@27_poly-right)	voltage
	59	V(net@514)	voltage
	60	V(s2#33nmos@28_poly-right)	voltage
	61	V(s2#53nmos@29_poly-left)	voltage
	62	V(net@521)	voltage
	63	V(net@522#7nmos@30_poly-right)	voltage
	64	V(i8)	voltage
	65	V(net@522)	voltage
	66	V(s1#76nmos@31_poly-right)	voltage
	67	V(s1#62nmos@32_poly-left)	voltage
	68	V(i10)	voltage
	69	V(net@540)	voltage
	70	V(net@523#11nmos@33_poly-right)	voltage
	71	V(i9)	voltage
	72	V(net@523#4contact@277_metal-1-n-act)	voltage
	73	V(s1#69nmos@34_poly-right)	voltage
	74	V(s1#79nmos@35_poly-left)	voltage
	75	V(i11)	voltage
	76	V(net@616)	voltage
	77	V(net@627#8nmos@36_poly-right)	voltage
	78	V(net@627)	voltage
	79	V(s2#31nmos@37_poly-right)	voltage
	80	V(s2#43nmos@38_poly-left)	voltage
	81	V(net@779)	voltage
	82	V(net@780#6nmos@39_poly-right)	voltage
	83	V(net@780)	voltage
	84	V(s0#18nmos@40_poly-right)	voltage
	85	V(s0#26nmos@41_poly-left)	voltage
	86	V(out)	voltage
	87	V(net@1031#6nmos@42_poly-right)	voltage
	88	V(net@1031)	voltage
	89	V(s3#2nmos@43_poly-right)	voltage
	90	V(net@1049)	voltage
	91	V(s3#10nmos@44_poly-left)	voltage
	92	V(s1#50pmos@0_poly-left)	voltage
	93	V(vdd)	voltage
	94	V(s1#55pmos@1_poly-right)	voltage
	95	V(net@26#8pmos@2_poly-left)	voltage
	96	V(s1#15pmos@3_poly-left)	voltage
	97	V(s1#19pmos@4_poly-right)	voltage
	98	V(net@27)	voltage
	99	V(s2#16pmos@6_poly-left)	voltage
	100	V(s2#22pmos@7_poly-right)	voltage
	101	V(net@122#9pmos@8_poly-left)	voltage
	102	V(s1#41pmos@9_poly-left)	voltage
	103	V(s1#46pmos@10_poly-right)	voltage
	104	V(net@130#8pmos@11_poly-left)	voltage
	105	V(s1#35pmos@12_poly-left)	voltage
	106	V(s1#39pmos@13_poly-right)	voltage
	107	V(net@131)	voltage
	108	V(s2#10pmos@15_poly-left)	voltage
	109	V(s2#14pmos@16_poly-right)	voltage
	110	V(net@235#9pmos@17_poly-left)	voltage
	111	V(s0#4pmos@18_poly-left)	voltage
	112	V(s0#8pmos@19_poly-right)	voltage
	113	V(net@375#9pmos@20_poly-left)	voltage
	114	V(s1#94pmos@21_poly-left)	voltage
	115	V(s1#101pmos@22_poly-right)	voltage
	116	V(net@556#9pmos@23_poly-left)	voltage
	117	V(s1#109pmos@24_poly-left)	voltage
	118	V(s1#112pmos@25_poly-right)	voltage
	119	V(net@517#2pmos@26_poly-left)	voltage
	120	V(s2#41pmos@27_poly-left)	voltage
	121	V(s2#49pmos@28_poly-right)	voltage
	122	V(net@514#9pmos@29_poly-left)	voltage
	123	V(s1#77pmos@30_poly-left)	voltage
	124	V(s1#82pmos@31_poly-right)	voltage
	125	V(net@522#8pmos@32_poly-left)	voltage
	126	V(s1#71pmos@33_poly-left)	voltage
	127	V(s1#75pmos@34_poly-right)	voltage
	128	V(net@523)	voltage
	129	V(s2#35pmos@36_poly-left)	voltage
	130	V(s2#39pmos@37_poly-right)	voltage
	131	V(net@627#9pmos@38_poly-left)	voltage
	132	V(s0#20pmos@39_poly-left)	voltage
	133	V(s0#24pmos@40_poly-right)	voltage
	134	V(net@780#9pmos@41_poly-left)	voltage
	135	V(s3#4pmos@42_poly-left)	voltage
	136	V(net@1063)	voltage
	137	V(s3#8pmos@43_poly-right)	voltage
	138	V(net@1031#9pmos@44_poly-left)	voltage
	139	V(s1)	voltage
	140	V(s2)	voltage
	141	V(s0#0pin@187_polysilicon-1)	voltage
	142	V(s0)	voltage
	143	V(s1#56contact@262_metal-1-metal-2)	voltage
	144	V(s2#27pin@263_polysilicon-1)	voltage
	145	V(s0#16pin@376_polysilicon-1)	voltage
	146	V(s3)	voltage
	147	V(s1#9pin@23_polysilicon-1)	voltage
	148	V(s1#51pin@26_polysilicon-1)	voltage
	149	V(s1#54pin@27_polysilicon-1)	voltage
	150	V(s1#7pin@32_polysilicon-1)	voltage
	151	V(s1#8pin@33_polysilicon-1)	voltage
	152	V(net@26#9pin@34_polysilicon-1)	voltage
	153	V(net@26#10pin@35_polysilicon-1)	voltage
	154	V(net@26#3pin@36_polysilicon-1)	voltage
	155	V(net@26#4pin@38_polysilicon-1)	voltage
	156	V(s1#14pin@46_polysilicon-1)	voltage
	157	V(s1#16pin@49_polysilicon-1)	voltage
	158	V(s1#17pin@50_polysilicon-1)	voltage
	159	V(s1#53pin@55_polysilicon-1)	voltage
	160	V(s1#11pin@56_polysilicon-1)	voltage
	161	V(net@27#1pin@57_polysilicon-1)	voltage
	162	V(net@27#2pin@58_polysilicon-1)	voltage
	163	V(net@27#3pin@59_polysilicon-1)	voltage
	164	V(net@27#6pin@61_polysilicon-1)	voltage
	165	V(s2#9pin@69_polysilicon-1)	voltage
	166	V(s2#17pin@72_polysilicon-1)	voltage
	167	V(s2#20pin@73_polysilicon-1)	voltage
	168	V(s2#26pin@77_polysilicon-1)	voltage
	169	V(s2#3pin@78_polysilicon-1)	voltage
	170	V(net@122#10pin@79_polysilicon-1)	voltage
	171	V(net@122#11pin@80_polysilicon-1)	voltage
	172	V(net@122#6pin@81_polysilicon-1)	voltage
	173	V(net@122#2pin@83_polysilicon-1)	voltage
	174	V(s1#29pin@98_polysilicon-1)	voltage
	175	V(s1#42pin@101_polysilicon-1)	voltage
	176	V(s1#45pin@102_polysilicon-1)	voltage
	177	V(s1#27pin@107_polysilicon-1)	voltage
	178	V(s1#28pin@108_polysilicon-1)	voltage
	179	V(net@130#9pin@109_polysilicon-1)	voltage
	180	V(net@130#10pin@110_polysilicon-1)	voltage
	181	V(net@130#3pin@111_polysilicon-1)	voltage
	182	V(net@130#4pin@113_polysilicon-1)	voltage
	183	V(s1#34pin@121_polysilicon-1)	voltage
	184	V(s1#36pin@124_polysilicon-1)	voltage
	185	V(s1#37pin@125_polysilicon-1)	voltage
	186	V(s1#44pin@130_polysilicon-1)	voltage
	187	V(s1#31pin@131_polysilicon-1)	voltage
	188	V(net@131#1pin@132_polysilicon-1)	voltage
	189	V(net@131#2pin@133_polysilicon-1)	voltage
	190	V(net@131#3pin@134_polysilicon-1)	voltage
	191	V(net@131#6pin@136_polysilicon-1)	voltage
	192	V(s2#7pin@144_polysilicon-1)	voltage
	193	V(s2#11pin@147_polysilicon-1)	voltage
	194	V(s2#12pin@148_polysilicon-1)	voltage
	195	V(s2#19pin@152_polysilicon-1)	voltage
	196	V(s2#5pin@153_polysilicon-1)	voltage
	197	V(net@235#10pin@154_polysilicon-1)	voltage
	198	V(net@235#11pin@155_polysilicon-1)	voltage
	199	V(net@235#6pin@156_polysilicon-1)	voltage
	200	V(net@235#2pin@158_polysilicon-1)	voltage
	201	V(s0#3pin@182_polysilicon-1)	voltage
	202	V(s0#5pin@185_polysilicon-1)	voltage
	203	V(s0#6pin@186_polysilicon-1)	voltage
	204	V(s0#11pin@191_polysilicon-1)	voltage
	205	V(s0#1pin@192_polysilicon-1)	voltage
	206	V(net@375#10pin@193_polysilicon-1)	voltage
	207	V(net@375#11pin@194_polysilicon-1)	voltage
	208	V(net@375#4pin@195_polysilicon-1)	voltage
	209	V(net@375#5pin@197_polysilicon-1)	voltage
	210	V(s1#93pin@212_polysilicon-1)	voltage
	211	V(s1#95pin@215_polysilicon-1)	voltage
	212	V(s1#98pin@216_polysilicon-1)	voltage
	213	V(s1#105pin@221_polysilicon-1)	voltage
	214	V(s1#106pin@222_polysilicon-1)	voltage
	215	V(net@556#10pin@223_polysilicon-1)	voltage
	216	V(net@556#11pin@224_polysilicon-1)	voltage
	217	V(net@556#5pin@225_polysilicon-1)	voltage
	218	V(net@556#6pin@227_polysilicon-1)	voltage
	219	V(s1#103pin@235_polysilicon-1)	voltage
	220	V(s1#110pin@238_polysilicon-1)	voltage
	221	V(s1#111pin@239_polysilicon-1)	voltage
	222	V(s1#97pin@244_polysilicon-1)	voltage
	223	V(s1#100pin@245_polysilicon-1)	voltage
	224	V(net@517#3pin@246_polysilicon-1)	voltage
	225	V(net@517#4pin@247_polysilicon-1)	voltage
	226	V(net@517#7pin@248_polysilicon-1)	voltage
	227	V(net@517#6pin@250_polysilicon-1)	voltage
	228	V(s2#34pin@258_polysilicon-1)	voltage
	229	V(s2#42pin@261_polysilicon-1)	voltage
	230	V(s2#45pin@262_polysilicon-1)	voltage
	231	V(s2#54pin@266_polysilicon-1)	voltage
	232	V(s2#28pin@267_polysilicon-1)	voltage
	233	V(net@514#10pin@268_polysilicon-1)	voltage
	234	V(net@514#11pin@269_polysilicon-1)	voltage
	235	V(net@514#6pin@270_polysilicon-1)	voltage
	236	V(net@514#2pin@272_polysilicon-1)	voltage
	237	V(s1#65pin@287_polysilicon-1)	voltage
	238	V(s1#78pin@290_polysilicon-1)	voltage
	239	V(s1#81pin@291_polysilicon-1)	voltage
	240	V(s1#63pin@296_polysilicon-1)	voltage
	241	V(s1#64pin@297_polysilicon-1)	voltage
	242	V(net@522#9pin@298_polysilicon-1)	voltage
	243	V(net@522#10pin@299_polysilicon-1)	voltage
	244	V(net@522#3pin@300_polysilicon-1)	voltage
	245	V(net@522#4pin@302_polysilicon-1)	voltage
	246	V(s1#70pin@310_polysilicon-1)	voltage
	247	V(s1#72pin@313_polysilicon-1)	voltage
	248	V(s1#73pin@314_polysilicon-1)	voltage
	249	V(s1#80pin@319_polysilicon-1)	voltage
	250	V(s1#67pin@320_polysilicon-1)	voltage
	251	V(net@523#1pin@321_polysilicon-1)	voltage
	252	V(net@523#2pin@322_polysilicon-1)	voltage
	253	V(net@523#3pin@323_polysilicon-1)	voltage
	254	V(net@523#6pin@325_polysilicon-1)	voltage
	255	V(s2#32pin@333_polysilicon-1)	voltage
	256	V(s2#36pin@336_polysilicon-1)	voltage
	257	V(s2#37pin@337_polysilicon-1)	voltage
	258	V(s2#44pin@341_polysilicon-1)	voltage
	259	V(s2#30pin@342_polysilicon-1)	voltage
	260	V(net@627#10pin@343_polysilicon-1)	voltage
	261	V(net@627#11pin@344_polysilicon-1)	voltage
	262	V(net@627#6pin@345_polysilicon-1)	voltage
	263	V(net@627#2pin@347_polysilicon-1)	voltage
	264	V(s0#19pin@371_polysilicon-1)	voltage
	265	V(s0#21pin@374_polysilicon-1)	voltage
	266	V(s0#22pin@375_polysilicon-1)	voltage
	267	V(s0#27pin@380_polysilicon-1)	voltage
	268	V(s0#17pin@381_polysilicon-1)	voltage
	269	V(net@780#10pin@382_polysilicon-1)	voltage
	270	V(net@780#11pin@383_polysilicon-1)	voltage
	271	V(net@780#4pin@384_polysilicon-1)	voltage
	272	V(net@780#5pin@386_polysilicon-1)	voltage
	273	V(s3#3pin@415_polysilicon-1)	voltage
	274	V(s3#5pin@418_polysilicon-1)	voltage
	275	V(s3#6pin@419_polysilicon-1)	voltage
	276	V(s3#11pin@424_polysilicon-1)	voltage
	277	V(s3#1pin@425_polysilicon-1)	voltage
	278	V(net@1031#10pin@426_polysilicon-1)	voltage
	279	V(net@1031#11pin@427_polysilicon-1)	voltage
	280	V(net@1031#4pin@428_polysilicon-1)	voltage
	281	V(net@1031#5pin@430_polysilicon-1)	voltage
	282	V(net@27#1pin@57_polysilicon-1##0)	voltage
	283	V(net@27#1pin@57_polysilicon-1##1)	voltage
	284	V(net@27#1pin@57_polysilicon-1##2)	voltage
	285	V(net@27#1pin@57_polysilicon-1##3)	voltage
	286	V(net@27#1pin@57_polysilicon-1##4)	voltage
	287	V(net@27#2pin@58_polysilicon-1##0)	voltage
	288	V(net@27#2pin@58_polysilicon-1##1)	voltage
	289	V(net@27#2pin@58_polysilicon-1##2)	voltage
	290	V(net@27#2pin@58_polysilicon-1##3)	voltage
	291	V(net@27#2pin@58_polysilicon-1##4)	voltage
	292	V(net@27#2pin@58_polysilicon-1##5)	voltage
	293	V(net@27#2pin@58_polysilicon-1##6)	voltage
	294	V(net@26#3pin@36_polysilicon-1##0)	voltage
	295	V(net@26#3pin@36_polysilicon-1##1)	voltage
	296	V(net@26#3pin@36_polysilicon-1##2)	voltage
	297	V(net@26#3pin@36_polysilicon-1##3)	voltage
	298	V(net@26#7nmos@0_poly-right##0)	voltage
	299	V(s1#6nmos@2_poly-left##0)	voltage
	300	V(s1#7pin@32_polysilicon-1##0)	voltage
	301	V(s1#7pin@32_polysilicon-1##1)	voltage
	302	V(s1#7pin@32_polysilicon-1##2)	voltage
	303	V(s1#7pin@32_polysilicon-1##3)	voltage
	304	V(s1#7pin@32_polysilicon-1##4)	voltage
	305	V(s1#7pin@32_polysilicon-1##5)	voltage
	306	V(s1#7pin@32_polysilicon-1##6)	voltage
	307	V(s1#7pin@32_polysilicon-1##7)	voltage
	308	V(s1#7pin@32_polysilicon-1##8)	voltage
	309	V(s1#7pin@32_polysilicon-1##9)	voltage
	310	V(s1#7pin@32_polysilicon-1##10)	voltage
	311	V(s1#7pin@32_polysilicon-1##11)	voltage
	312	V(s1#7pin@32_polysilicon-1##12)	voltage
	313	V(s1#7pin@32_polysilicon-1##13)	voltage
	314	V(s1#7pin@32_polysilicon-1##14)	voltage
	315	V(s1#7pin@32_polysilicon-1##15)	voltage
	316	V(s1#7pin@32_polysilicon-1##16)	voltage
	317	V(s1#7pin@32_polysilicon-1##17)	voltage
	318	V(s1#7pin@32_polysilicon-1##18)	voltage
	319	V(s1#7pin@32_polysilicon-1##19)	voltage
	320	V(s1#7pin@32_polysilicon-1##20)	voltage
	321	V(s1#7pin@32_polysilicon-1##21)	voltage
	322	V(s1##0)	voltage
	323	V(s1##1)	voltage
	324	V(net@26#9pin@34_polysilicon-1##0)	voltage
	325	V(net@26#9pin@34_polysilicon-1##1)	voltage
	326	V(net@26#9pin@34_polysilicon-1##2)	voltage
	327	V(net@26#9pin@34_polysilicon-1##3)	voltage
	328	V(net@26#9pin@34_polysilicon-1##4)	voltage
	329	V(net@26#10pin@35_polysilicon-1##0)	voltage
	330	V(net@26#10pin@35_polysilicon-1##1)	voltage
	331	V(net@26#10pin@35_polysilicon-1##2)	voltage
	332	V(net@26#10pin@35_polysilicon-1##3)	voltage
	333	V(net@26#10pin@35_polysilicon-1##4)	voltage
	334	V(net@26#10pin@35_polysilicon-1##5)	voltage
	335	V(net@26#10pin@35_polysilicon-1##6)	voltage
	336	V(s1##2)	voltage
	337	V(s1##3)	voltage
	338	V(s1##4)	voltage
	339	V(s1##5)	voltage
	340	V(s1##6)	voltage
	341	V(net@27#6pin@61_polysilicon-1##0)	voltage
	342	V(net@27#6pin@61_polysilicon-1##1)	voltage
	343	V(net@27#6pin@61_polysilicon-1##2)	voltage
	344	V(net@27#6pin@61_polysilicon-1##3)	voltage
	345	V(net@27#6pin@61_polysilicon-1##4)	voltage
	346	V(s1#13nmos@4_poly-right##0)	voltage
	347	V(s1#13nmos@4_poly-right##1)	voltage
	348	V(s1#15pmos@3_poly-left##0)	voltage
	349	V(s1#16pin@49_polysilicon-1##0)	voltage
	350	V(s1#16pin@49_polysilicon-1##1)	voltage
	351	V(s1#16pin@49_polysilicon-1##2)	voltage
	352	V(s1#16pin@49_polysilicon-1##3)	voltage
	353	V(s1#16pin@49_polysilicon-1##4)	voltage
	354	V(s1#16pin@49_polysilicon-1##5)	voltage
	355	V(s1#16pin@49_polysilicon-1##6)	voltage
	356	V(s1#16pin@49_polysilicon-1##7)	voltage
	357	V(s1#16pin@49_polysilicon-1##8)	voltage
	358	V(s1#16pin@49_polysilicon-1##9)	voltage
	359	V(s1#16pin@49_polysilicon-1##10)	voltage
	360	V(s1#16pin@49_polysilicon-1##11)	voltage
	361	V(s1#17pin@50_polysilicon-1##0)	voltage
	362	V(s1#17pin@50_polysilicon-1##1)	voltage
	363	V(s1#17pin@50_polysilicon-1##2)	voltage
	364	V(s1#17pin@50_polysilicon-1##3)	voltage
	365	V(s1#17pin@50_polysilicon-1##4)	voltage
	366	V(s1#17pin@50_polysilicon-1##5)	voltage
	367	V(s1#14pin@46_polysilicon-1##0)	voltage
	368	V(net@26#4pin@38_polysilicon-1##0)	voltage
	369	V(net@26#4pin@38_polysilicon-1##1)	voltage
	370	V(net@26#4pin@38_polysilicon-1##2)	voltage
	371	V(net@26#4pin@38_polysilicon-1##3)	voltage
	372	V(net@26#4pin@38_polysilicon-1##4)	voltage
	373	V(net@27#3pin@59_polysilicon-1##0)	voltage
	374	V(net@27#3pin@59_polysilicon-1##1)	voltage
	375	V(net@27#3pin@59_polysilicon-1##2)	voltage
	376	V(net@27#3pin@59_polysilicon-1##3)	voltage
	377	V(net@131#1pin@132_polysilicon-1##0)	voltage
	378	V(net@131#1pin@132_polysilicon-1##1)	voltage
	379	V(net@131#1pin@132_polysilicon-1##2)	voltage
	380	V(net@131#1pin@132_polysilicon-1##3)	voltage
	381	V(net@131#1pin@132_polysilicon-1##4)	voltage
	382	V(net@131#2pin@133_polysilicon-1##0)	voltage
	383	V(net@131#2pin@133_polysilicon-1##1)	voltage
	384	V(net@131#2pin@133_polysilicon-1##2)	voltage
	385	V(net@131#2pin@133_polysilicon-1##3)	voltage
	386	V(net@131#2pin@133_polysilicon-1##4)	voltage
	387	V(net@131#2pin@133_polysilicon-1##5)	voltage
	388	V(net@131#2pin@133_polysilicon-1##6)	voltage
	389	V(net@130#3pin@111_polysilicon-1##0)	voltage
	390	V(net@130#3pin@111_polysilicon-1##1)	voltage
	391	V(net@130#3pin@111_polysilicon-1##2)	voltage
	392	V(net@130#3pin@111_polysilicon-1##3)	voltage
	393	V(net@130#7nmos@9_poly-right##0)	voltage
	394	V(s2##0)	voltage
	395	V(s2##1)	voltage
	396	V(s2##2)	voltage
	397	V(s2##3)	voltage
	398	V(s2##4)	voltage
	399	V(s2##5)	voltage
	400	V(s2##6)	voltage
	401	V(s1#26nmos@11_poly-left##0)	voltage
	402	V(s1#27pin@107_polysilicon-1##0)	voltage
	403	V(s1#27pin@107_polysilicon-1##1)	voltage
	404	V(s1#27pin@107_polysilicon-1##2)	voltage
	405	V(s1#27pin@107_polysilicon-1##3)	voltage
	406	V(s1#27pin@107_polysilicon-1##4)	voltage
	407	V(s1#27pin@107_polysilicon-1##5)	voltage
	408	V(s1#27pin@107_polysilicon-1##6)	voltage
	409	V(s1#27pin@107_polysilicon-1##7)	voltage
	410	V(s1#27pin@107_polysilicon-1##8)	voltage
	411	V(s1#27pin@107_polysilicon-1##9)	voltage
	412	V(s1#27pin@107_polysilicon-1##10)	voltage
	413	V(s1#27pin@107_polysilicon-1##11)	voltage
	414	V(s1#27pin@107_polysilicon-1##12)	voltage
	415	V(s1#27pin@107_polysilicon-1##13)	voltage
	416	V(s1#27pin@107_polysilicon-1##14)	voltage
	417	V(s1#27pin@107_polysilicon-1##15)	voltage
	418	V(s1#27pin@107_polysilicon-1##16)	voltage
	419	V(s1#27pin@107_polysilicon-1##17)	voltage
	420	V(s1#27pin@107_polysilicon-1##18)	voltage
	421	V(s1#27pin@107_polysilicon-1##19)	voltage
	422	V(s1#27pin@107_polysilicon-1##20)	voltage
	423	V(s1#27pin@107_polysilicon-1##21)	voltage
	424	V(net@130#9pin@109_polysilicon-1##0)	voltage
	425	V(net@130#9pin@109_polysilicon-1##1)	voltage
	426	V(net@130#9pin@109_polysilicon-1##2)	voltage
	427	V(net@130#9pin@109_polysilicon-1##3)	voltage
	428	V(net@130#9pin@109_polysilicon-1##4)	voltage
	429	V(net@130#10pin@110_polysilicon-1##0)	voltage
	430	V(net@130#10pin@110_polysilicon-1##1)	voltage
	431	V(net@130#10pin@110_polysilicon-1##2)	voltage
	432	V(net@130#10pin@110_polysilicon-1##3)	voltage
	433	V(net@130#10pin@110_polysilicon-1##4)	voltage
	434	V(net@130#10pin@110_polysilicon-1##5)	voltage
	435	V(net@130#10pin@110_polysilicon-1##6)	voltage
	436	V(net@122#2pin@83_polysilicon-1##0)	voltage
	437	V(net@122#2pin@83_polysilicon-1##1)	voltage
	438	V(net@122#2pin@83_polysilicon-1##2)	voltage
	439	V(net@122#2pin@83_polysilicon-1##3)	voltage
	440	V(net@122#2pin@83_polysilicon-1##4)	voltage
	441	V(net@131#6pin@136_polysilicon-1##0)	voltage
	442	V(net@131#6pin@136_polysilicon-1##1)	voltage
	443	V(net@131#6pin@136_polysilicon-1##2)	voltage
	444	V(net@131#6pin@136_polysilicon-1##3)	voltage
	445	V(net@131#6pin@136_polysilicon-1##4)	voltage
	446	V(s1#33nmos@13_poly-right##0)	voltage
	447	V(s1#33nmos@13_poly-right##1)	voltage
	448	V(s1#35pmos@12_poly-left##0)	voltage
	449	V(s1#36pin@124_polysilicon-1##0)	voltage
	450	V(s1#36pin@124_polysilicon-1##1)	voltage
	451	V(s1#36pin@124_polysilicon-1##2)	voltage
	452	V(s1#36pin@124_polysilicon-1##3)	voltage
	453	V(s1#36pin@124_polysilicon-1##4)	voltage
	454	V(s1#36pin@124_polysilicon-1##5)	voltage
	455	V(s1#36pin@124_polysilicon-1##6)	voltage
	456	V(s1#36pin@124_polysilicon-1##7)	voltage
	457	V(s1#36pin@124_polysilicon-1##8)	voltage
	458	V(s1#36pin@124_polysilicon-1##9)	voltage
	459	V(s1#36pin@124_polysilicon-1##10)	voltage
	460	V(s1#36pin@124_polysilicon-1##11)	voltage
	461	V(s1#37pin@125_polysilicon-1##0)	voltage
	462	V(s1#37pin@125_polysilicon-1##1)	voltage
	463	V(s1#37pin@125_polysilicon-1##2)	voltage
	464	V(s1#37pin@125_polysilicon-1##3)	voltage
	465	V(s1#37pin@125_polysilicon-1##4)	voltage
	466	V(s1#37pin@125_polysilicon-1##5)	voltage
	467	V(s1#34pin@121_polysilicon-1##0)	voltage
	468	V(net@130#4pin@113_polysilicon-1##0)	voltage
	469	V(net@130#4pin@113_polysilicon-1##1)	voltage
	470	V(net@130#4pin@113_polysilicon-1##2)	voltage
	471	V(net@130#4pin@113_polysilicon-1##3)	voltage
	472	V(net@130#4pin@113_polysilicon-1##4)	voltage
	473	V(net@131#3pin@134_polysilicon-1##0)	voltage
	474	V(net@131#3pin@134_polysilicon-1##1)	voltage
	475	V(net@131#3pin@134_polysilicon-1##2)	voltage
	476	V(net@131#3pin@134_polysilicon-1##3)	voltage
	477	V(net@235#2pin@158_polysilicon-1##0)	voltage
	478	V(net@235#2pin@158_polysilicon-1##1)	voltage
	479	V(net@235#2pin@158_polysilicon-1##2)	voltage
	480	V(net@235#2pin@158_polysilicon-1##3)	voltage
	481	V(net@235#2pin@158_polysilicon-1##4)	voltage
	482	V(s2#6nmos@16_poly-right##0)	voltage
	483	V(s2#6nmos@16_poly-right##1)	voltage
	484	V(s2#8nmos@7_poly-right##0)	voltage
	485	V(s2#8nmos@7_poly-right##1)	voltage
	486	V(s2#10pmos@15_poly-left##0)	voltage
	487	V(s2#11pin@147_polysilicon-1##0)	voltage
	488	V(s2#11pin@147_polysilicon-1##1)	voltage
	489	V(s2#11pin@147_polysilicon-1##2)	voltage
	490	V(s2#11pin@147_polysilicon-1##3)	voltage
	491	V(s2#11pin@147_polysilicon-1##4)	voltage
	492	V(s2#11pin@147_polysilicon-1##5)	voltage
	493	V(s2#11pin@147_polysilicon-1##6)	voltage
	494	V(s2#11pin@147_polysilicon-1##7)	voltage
	495	V(s2#11pin@147_polysilicon-1##8)	voltage
	496	V(s2#11pin@147_polysilicon-1##9)	voltage
	497	V(s2#11pin@147_polysilicon-1##10)	voltage
	498	V(s2#11pin@147_polysilicon-1##11)	voltage
	499	V(s2#12pin@148_polysilicon-1##0)	voltage
	500	V(s2#12pin@148_polysilicon-1##1)	voltage
	501	V(s2#12pin@148_polysilicon-1##2)	voltage
	502	V(s2#12pin@148_polysilicon-1##3)	voltage
	503	V(s2#12pin@148_polysilicon-1##4)	voltage
	504	V(s2#12pin@148_polysilicon-1##5)	voltage
	505	V(s2#7pin@144_polysilicon-1##0)	voltage
	506	V(net@131#11nmos@12_poly-right##0)	voltage
	507	V(net@235#6pin@156_polysilicon-1##0)	voltage
	508	V(net@235#6pin@156_polysilicon-1##1)	voltage
	509	V(net@235#6pin@156_polysilicon-1##2)	voltage
	510	V(net@235#6pin@156_polysilicon-1##3)	voltage
	511	V(s2#16pmos@6_poly-left##0)	voltage
	512	V(s1#40nmos@10_poly-right##0)	voltage
	513	V(s1#40nmos@10_poly-right##1)	voltage
	514	V(net@235#8nmos@15_poly-right##0)	voltage
	515	V(s1#41pmos@9_poly-left##0)	voltage
	516	V(s2#18nmos@17_poly-left##0)	voltage
	517	V(s2#19pin@152_polysilicon-1##0)	voltage
	518	V(s2#19pin@152_polysilicon-1##1)	voltage
	519	V(s2#19pin@152_polysilicon-1##2)	voltage
	520	V(s2#19pin@152_polysilicon-1##3)	voltage
	521	V(s2#19pin@152_polysilicon-1##4)	voltage
	522	V(s2#19pin@152_polysilicon-1##5)	voltage
	523	V(s2#19pin@152_polysilicon-1##6)	voltage
	524	V(s2#19pin@152_polysilicon-1##7)	voltage
	525	V(s2#19pin@152_polysilicon-1##8)	voltage
	526	V(s2#19pin@152_polysilicon-1##9)	voltage
	527	V(s2#19pin@152_polysilicon-1##10)	voltage
	528	V(s2#19pin@152_polysilicon-1##11)	voltage
	529	V(s2#19pin@152_polysilicon-1##12)	voltage
	530	V(s2#19pin@152_polysilicon-1##13)	voltage
	531	V(s2#19pin@152_polysilicon-1##14)	voltage
	532	V(s2#19pin@152_polysilicon-1##15)	voltage
	533	V(s2#19pin@152_polysilicon-1##16)	voltage
	534	V(s2#19pin@152_polysilicon-1##17)	voltage
	535	V(s2#19pin@152_polysilicon-1##18)	voltage
	536	V(s2#19pin@152_polysilicon-1##19)	voltage
	537	V(s2#19pin@152_polysilicon-1##20)	voltage
	538	V(s2#19pin@152_polysilicon-1##21)	voltage
	539	V(s1#43nmos@14_poly-left##0)	voltage
	540	V(s2#17pin@72_polysilicon-1##0)	voltage
	541	V(s2#17pin@72_polysilicon-1##1)	voltage
	542	V(s2#17pin@72_polysilicon-1##2)	voltage
	543	V(s2#17pin@72_polysilicon-1##3)	voltage
	544	V(s2#17pin@72_polysilicon-1##4)	voltage
	545	V(s2#17pin@72_polysilicon-1##5)	voltage
	546	V(s2#17pin@72_polysilicon-1##6)	voltage
	547	V(s2#17pin@72_polysilicon-1##7)	voltage
	548	V(s2#17pin@72_polysilicon-1##8)	voltage
	549	V(s2#17pin@72_polysilicon-1##9)	voltage
	550	V(s2#17pin@72_polysilicon-1##10)	voltage
	551	V(s2#17pin@72_polysilicon-1##11)	voltage
	552	V(net@235#10pin@154_polysilicon-1##0)	voltage
	553	V(net@235#10pin@154_polysilicon-1##1)	voltage
	554	V(net@235#10pin@154_polysilicon-1##2)	voltage
	555	V(net@235#10pin@154_polysilicon-1##3)	voltage
	556	V(net@235#10pin@154_polysilicon-1##4)	voltage
	557	V(net@235#11pin@155_polysilicon-1##0)	voltage
	558	V(net@235#11pin@155_polysilicon-1##1)	voltage
	559	V(net@235#11pin@155_polysilicon-1##2)	voltage
	560	V(net@235#11pin@155_polysilicon-1##3)	voltage
	561	V(net@235#11pin@155_polysilicon-1##4)	voltage
	562	V(net@235#11pin@155_polysilicon-1##5)	voltage
	563	V(net@235#11pin@155_polysilicon-1##6)	voltage
	564	V(s1#42pin@101_polysilicon-1##0)	voltage
	565	V(s1#42pin@101_polysilicon-1##1)	voltage
	566	V(s1#42pin@101_polysilicon-1##2)	voltage
	567	V(s1#42pin@101_polysilicon-1##3)	voltage
	568	V(s1#42pin@101_polysilicon-1##4)	voltage
	569	V(s1#42pin@101_polysilicon-1##5)	voltage
	570	V(s1#42pin@101_polysilicon-1##6)	voltage
	571	V(s1#42pin@101_polysilicon-1##7)	voltage
	572	V(s1#42pin@101_polysilicon-1##8)	voltage
	573	V(s1#42pin@101_polysilicon-1##9)	voltage
	574	V(s1#42pin@101_polysilicon-1##10)	voltage
	575	V(s1#42pin@101_polysilicon-1##11)	voltage
	576	V(s1#45pin@102_polysilicon-1##0)	voltage
	577	V(s1#45pin@102_polysilicon-1##1)	voltage
	578	V(s1#45pin@102_polysilicon-1##2)	voltage
	579	V(s1#45pin@102_polysilicon-1##3)	voltage
	580	V(s1#45pin@102_polysilicon-1##4)	voltage
	581	V(s1#45pin@102_polysilicon-1##5)	voltage
	582	V(s2#20pin@73_polysilicon-1##0)	voltage
	583	V(s2#20pin@73_polysilicon-1##1)	voltage
	584	V(s2#20pin@73_polysilicon-1##2)	voltage
	585	V(s2#20pin@73_polysilicon-1##3)	voltage
	586	V(s2#20pin@73_polysilicon-1##4)	voltage
	587	V(s2#20pin@73_polysilicon-1##5)	voltage
	588	V(s1#44pin@130_polysilicon-1##0)	voltage
	589	V(s1#44pin@130_polysilicon-1##1)	voltage
	590	V(s1#44pin@130_polysilicon-1##2)	voltage
	591	V(s1#44pin@130_polysilicon-1##3)	voltage
	592	V(s1#44pin@130_polysilicon-1##4)	voltage
	593	V(s1#44pin@130_polysilicon-1##5)	voltage
	594	V(s1#44pin@130_polysilicon-1##6)	voltage
	595	V(s1#44pin@130_polysilicon-1##7)	voltage
	596	V(s1#44pin@130_polysilicon-1##8)	voltage
	597	V(s1#44pin@130_polysilicon-1##9)	voltage
	598	V(s1#44pin@130_polysilicon-1##10)	voltage
	599	V(s1#44pin@130_polysilicon-1##11)	voltage
	600	V(s1#44pin@130_polysilicon-1##12)	voltage
	601	V(s1#44pin@130_polysilicon-1##13)	voltage
	602	V(s1#44pin@130_polysilicon-1##14)	voltage
	603	V(s1#44pin@130_polysilicon-1##15)	voltage
	604	V(s1#44pin@130_polysilicon-1##16)	voltage
	605	V(s1#44pin@130_polysilicon-1##17)	voltage
	606	V(s1#44pin@130_polysilicon-1##18)	voltage
	607	V(s1#44pin@130_polysilicon-1##19)	voltage
	608	V(s1#44pin@130_polysilicon-1##20)	voltage
	609	V(s1#44pin@130_polysilicon-1##21)	voltage
	610	V(s1#29pin@98_polysilicon-1##0)	voltage
	611	V(s2#9pin@69_polysilicon-1##0)	voltage
	612	V(net@375#4pin@195_polysilicon-1##0)	voltage
	613	V(net@375#4pin@195_polysilicon-1##1)	voltage
	614	V(net@375#4pin@195_polysilicon-1##2)	voltage
	615	V(net@375#4pin@195_polysilicon-1##3)	voltage
	616	V(net@375#6nmos@18_poly-right##0)	voltage
	617	V(s0#0pin@187_polysilicon-1##0)	voltage
	618	V(s0#0pin@187_polysilicon-1##1)	voltage
	619	V(s0#0pin@187_polysilicon-1##2)	voltage
	620	V(s0#0pin@187_polysilicon-1##3)	voltage
	621	V(s0#0pin@187_polysilicon-1##4)	voltage
	622	V(s0#0pin@187_polysilicon-1##5)	voltage
	623	V(s0#0pin@187_polysilicon-1##6)	voltage
	624	V(net@375#5pin@197_polysilicon-1##0)	voltage
	625	V(net@375#5pin@197_polysilicon-1##1)	voltage
	626	V(net@375#5pin@197_polysilicon-1##2)	voltage
	627	V(net@375#5pin@197_polysilicon-1##3)	voltage
	628	V(net@375#5pin@197_polysilicon-1##4)	voltage
	629	V(s0#2nmos@19_poly-right##0)	voltage
	630	V(s0#2nmos@19_poly-right##1)	voltage
	631	V(s0#4pmos@18_poly-left##0)	voltage
	632	V(s0#5pin@185_polysilicon-1##0)	voltage
	633	V(s0#5pin@185_polysilicon-1##1)	voltage
	634	V(s0#5pin@185_polysilicon-1##2)	voltage
	635	V(s0#5pin@185_polysilicon-1##3)	voltage
	636	V(s0#5pin@185_polysilicon-1##4)	voltage
	637	V(s0#5pin@185_polysilicon-1##5)	voltage
	638	V(s0#5pin@185_polysilicon-1##6)	voltage
	639	V(s0#5pin@185_polysilicon-1##7)	voltage
	640	V(s0#5pin@185_polysilicon-1##8)	voltage
	641	V(s0#5pin@185_polysilicon-1##9)	voltage
	642	V(s0#5pin@185_polysilicon-1##10)	voltage
	643	V(s0#5pin@185_polysilicon-1##11)	voltage
	644	V(s0#6pin@186_polysilicon-1##0)	voltage
	645	V(s0#6pin@186_polysilicon-1##1)	voltage
	646	V(s0#6pin@186_polysilicon-1##2)	voltage
	647	V(s0#6pin@186_polysilicon-1##3)	voltage
	648	V(s0#6pin@186_polysilicon-1##4)	voltage
	649	V(s0#6pin@186_polysilicon-1##5)	voltage
	650	V(s0#3pin@182_polysilicon-1##0)	voltage
	651	V(s0#10nmos@20_poly-left##0)	voltage
	652	V(s0#11pin@191_polysilicon-1##0)	voltage
	653	V(s0#11pin@191_polysilicon-1##1)	voltage
	654	V(s0#11pin@191_polysilicon-1##2)	voltage
	655	V(s0#11pin@191_polysilicon-1##3)	voltage
	656	V(s0#11pin@191_polysilicon-1##4)	voltage
	657	V(s0#11pin@191_polysilicon-1##5)	voltage
	658	V(s0#11pin@191_polysilicon-1##6)	voltage
	659	V(s0#11pin@191_polysilicon-1##7)	voltage
	660	V(s0#11pin@191_polysilicon-1##8)	voltage
	661	V(s0#11pin@191_polysilicon-1##9)	voltage
	662	V(s0#11pin@191_polysilicon-1##10)	voltage
	663	V(s0#11pin@191_polysilicon-1##11)	voltage
	664	V(s0#11pin@191_polysilicon-1##12)	voltage
	665	V(s0#11pin@191_polysilicon-1##13)	voltage
	666	V(s0#11pin@191_polysilicon-1##14)	voltage
	667	V(s0#11pin@191_polysilicon-1##15)	voltage
	668	V(s0#11pin@191_polysilicon-1##16)	voltage
	669	V(s0#11pin@191_polysilicon-1##17)	voltage
	670	V(s0#11pin@191_polysilicon-1##18)	voltage
	671	V(s0#11pin@191_polysilicon-1##19)	voltage
	672	V(s0#11pin@191_polysilicon-1##20)	voltage
	673	V(s0#11pin@191_polysilicon-1##21)	voltage
	674	V(net@375#10pin@193_polysilicon-1##0)	voltage
	675	V(net@375#10pin@193_polysilicon-1##1)	voltage
	676	V(net@375#10pin@193_polysilicon-1##2)	voltage
	677	V(net@375#10pin@193_polysilicon-1##3)	voltage
	678	V(net@375#10pin@193_polysilicon-1##4)	voltage
	679	V(net@375#11pin@194_polysilicon-1##0)	voltage
	680	V(net@375#11pin@194_polysilicon-1##1)	voltage
	681	V(net@375#11pin@194_polysilicon-1##2)	voltage
	682	V(net@375#11pin@194_polysilicon-1##3)	voltage
	683	V(net@375#11pin@194_polysilicon-1##4)	voltage
	684	V(net@375#11pin@194_polysilicon-1##5)	voltage
	685	V(net@375#11pin@194_polysilicon-1##6)	voltage
	686	V(net@27#11nmos@3_poly-right##0)	voltage
	687	V(net@122#6pin@81_polysilicon-1##0)	voltage
	688	V(net@122#6pin@81_polysilicon-1##1)	voltage
	689	V(net@122#6pin@81_polysilicon-1##2)	voltage