Title: *** SPICE deck for cell MUX_16_1_TG_2_2{lay} from library MUX_16_1
Date: Wed May 13 22:24:40 2020
Plotname: Operating Point
Flags: real
No. Variables: 3275
No. Points:            1
Offset:   0.0000000000000000e+000
Command: Linear Technology Corporation LTspice IV
Variables:
	0	V(net@0)	voltage
	1	V(net@1#6nmos@0_poly-right)	voltage
	2	V(i4)	voltage
	3	V(net@1)	voltage
	4	V(s1#34nmos@1_poly-right)	voltage
	5	V(s1#36nmos@2_poly-left)	voltage
	6	V(i6)	voltage
	7	V(net@33)	voltage
	8	V(net@24#4nmos@3_poly-right)	voltage
	9	V(i5)	voltage
	10	V(net@24#6contact@26_metal-1-n-act)	voltage
	11	V(s1#50nmos@4_poly-right)	voltage
	12	V(s1#41nmos@5_poly-left)	voltage
	13	V(i7)	voltage
	14	V(net@11)	voltage
	15	V(net@80#8nmos@6_poly-right)	voltage
	16	V(net@80#1contact@56_metal-1-polysilicon-1)	voltage
	17	V(s2#6nmos@7_poly-right)	voltage
	18	V(s2#24nmos@8_poly-left)	voltage
	19	V(net@6)	voltage
	20	V(net@7#7nmos@9_poly-right)	voltage
	21	V(i0)	voltage
	22	V(net@7)	voltage
	23	V(s1#25nmos@10_poly-right)	voltage
	24	V(s1#11nmos@11_poly-left)	voltage
	25	V(i2)	voltage
	26	V(net@27)	voltage
	27	V(net@8#11nmos@12_poly-right)	voltage
	28	V(i1)	voltage
	29	V(net@8#4contact@94_metal-1-n-act)	voltage
	30	V(s1#18nmos@13_poly-right)	voltage
	31	V(s1#28nmos@14_poly-left)	voltage
	32	V(i3)	voltage
	33	V(net@110)	voltage
	34	V(net@123#8nmos@15_poly-right)	voltage
	35	V(net@123)	voltage
	36	V(s2#4nmos@16_poly-right)	voltage
	37	V(s2#16nmos@17_poly-left)	voltage
	38	V(net@269)	voltage
	39	V(net@270#6nmos@18_poly-right)	voltage
	40	V(net@270)	voltage
	41	V(s0#2nmos@19_poly-right)	voltage
	42	V(s0#10nmos@20_poly-left)	voltage
	43	V(net@999)	voltage
	44	V(net@1000#6nmos@21_poly-right)	voltage
	45	V(i12)	voltage
	46	V(net@1000)	voltage
	47	V(net@1001#22nmos@22_poly-right)	voltage
	48	V(net@1001#24nmos@23_poly-left)	voltage
	49	V(i14)	voltage
	50	V(net@1175)	voltage
	51	V(net@1064#3nmos@24_poly-right)	voltage
	52	V(i13)	voltage
	53	V(net@1064#5contact@209_metal-1-n-act)	voltage
	54	V(net@1001#40nmos@25_poly-right)	voltage
	55	V(net@1001#31nmos@26_poly-left)	voltage
	56	V(i15)	voltage
	57	V(net@1034)	voltage
	58	V(net@1082#8nmos@27_poly-right)	voltage
	59	V(net@1082)	voltage
	60	V(s2#47nmos@28_poly-right)	voltage
	61	V(s2#42nmos@29_poly-left)	voltage
	62	V(net@1024)	voltage
	63	V(net@1063#6nmos@30_poly-right)	voltage
	64	V(net@1063)	voltage
	65	V(net@1001#56nmos@31_poly-right)	voltage
	66	V(net@1001#47nmos@32_poly-left)	voltage
	67	V(i10)	voltage
	68	V(net@1002)	voltage
	69	V(net@1028#10nmos@33_poly-right)	voltage
	70	V(i9)	voltage
	71	V(net@1028#4pmos@34_diff-top)	voltage
	72	V(net@1001#51nmos@34_poly-right)	voltage
	73	V(net@1001#5nmos@35_poly-left)	voltage
	74	V(i11)	voltage
	75	V(net@1021)	voltage
	76	V(net@1006)	voltage
	77	V(net@1006#6contact@296_metal-1-n-act)	voltage
	78	V(s2#46nmos@37_poly-right)	voltage
	79	V(s2#26nmos@38_poly-left)	voltage
	80	V(net@1099)	voltage
	81	V(net@1102#6nmos@39_poly-right)	voltage
	82	V(net@1102)	voltage
	83	V(s0#18nmos@40_poly-right)	voltage
	84	V(s0#26nmos@41_poly-left)	voltage
	85	V(out)	voltage
	86	V(net@1511#6nmos@42_poly-right)	voltage
	87	V(net@1511)	voltage
	88	V(s3#2nmos@43_poly-right)	voltage
	89	V(s3#10nmos@44_poly-left)	voltage
	90	V(s1#39pmos@0_poly-left)	voltage
	91	V(vdd)	voltage
	92	V(s1#46pmos@1_poly-right)	voltage
	93	V(net@1#7pmos@2_poly-left)	voltage
	94	V(s1#51pmos@3_poly-left)	voltage
	95	V(s1#54pmos@4_poly-right)	voltage
	96	V(net@24#2pmos@5_poly-left)	voltage
	97	V(s2#14pmos@6_poly-left)	voltage
	98	V(s2#20pmos@7_poly-right)	voltage
	99	V(net@80#9pmos@8_poly-left)	voltage
	100	V(s1#26pmos@9_poly-left)	voltage
	101	V(s1#31pmos@10_poly-right)	voltage
	102	V(net@7#8pmos@11_poly-left)	voltage
	103	V(s1#20pmos@12_poly-left)	voltage
	104	V(s1#24pmos@13_poly-right)	voltage
	105	V(net@8)	voltage
	106	V(s2#8pmos@15_poly-left)	voltage
	107	V(s2#12pmos@16_poly-right)	voltage
	108	V(net@123#9pmos@17_poly-left)	voltage
	109	V(s0#4pmos@18_poly-left)	voltage
	110	V(s0#8pmos@19_poly-right)	voltage
	111	V(net@270#9pmos@20_poly-left)	voltage
	112	V(net@1001#29pmos@21_poly-left)	voltage
	113	V(net@1001#36pmos@22_poly-right)	voltage
	114	V(net@1000#7pmos@23_poly-left)	voltage
	115	V(net@1001#41pmos@24_poly-left)	voltage
	116	V(net@1001#44pmos@25_poly-right)	voltage
	117	V(net@1064#2pmos@26_poly-left)	voltage
	118	V(s2#52pmos@27_poly-left)	voltage
	119	V(s2#36pmos@28_poly-right)	voltage
	120	V(net@1082#9pmos@29_poly-left)	voltage
	121	V(net@1001#3pmos@30_poly-left)	voltage
	122	V(net@1001#15pmos@31_poly-right)	voltage
	123	V(net@1063#7pmos@32_poly-left)	voltage
	124	V(net@1001#52pmos@33_poly-left)	voltage
	125	V(net@1001#27pmos@34_poly-right)	voltage
	126	V(net@1028#8pmos@35_poly-left)	voltage
	127	V(s2#48pmos@36_poly-left)	voltage
	128	V(s2#51pmos@37_poly-right)	voltage
	129	V(net@1006#2pmos@38_poly-left)	voltage
	130	V(s0#20pmos@39_poly-left)	voltage
	131	V(s0#24pmos@40_poly-right)	voltage
	132	V(net@1102#9pmos@41_poly-left)	voltage
	133	V(s3#4pmos@42_poly-left)	voltage
	134	V(s3#8pmos@43_poly-right)	voltage
	135	V(net@1511#9pmos@44_poly-left)	voltage
	136	V(s1)	voltage
	137	V(s2)	voltage
	138	V(s0#0pin@165_polysilicon-1)	voltage
	139	V(s0)	voltage
	140	V(net@1001)	voltage
	141	V(s2#29contact@299_metal-1-polysilicon-1)	voltage
	142	V(s0#16pin@362_polysilicon-1)	voltage
	143	V(s0#31contact@360_metal-1-metal-2)	voltage
	144	V(s3)	voltage
	145	V(s1#35pin@2_polysilicon-1)	voltage
	146	V(s1#40pin@5_polysilicon-1)	voltage
	147	V(s1#43pin@6_polysilicon-1)	voltage
	148	V(s1#37pin@11_polysilicon-1)	voltage
	149	V(s1#38pin@12_polysilicon-1)	voltage
	150	V(net@1#8pin@13_polysilicon-1)	voltage
	151	V(net@1#9pin@14_polysilicon-1)	voltage
	152	V(net@1#3pin@15_polysilicon-1)	voltage
	153	V(net@1#4pin@17_polysilicon-1)	voltage
	154	V(s1#48pin@25_polysilicon-1)	voltage
	155	V(s1#52pin@28_polysilicon-1)	voltage
	156	V(s1#53pin@29_polysilicon-1)	voltage
	157	V(s1#42pin@34_polysilicon-1)	voltage
	158	V(s1#45pin@35_polysilicon-1)	voltage
	159	V(net@24)	voltage
	160	V(net@24#1pin@37_polysilicon-1)	voltage
	161	V(net@24#3pin@38_polysilicon-1)	voltage
	162	V(net@24#5pin@40_polysilicon-1)	voltage
	163	V(s2#7pin@48_polysilicon-1)	voltage
	164	V(s2#15pin@51_polysilicon-1)	voltage
	165	V(s2#18pin@52_polysilicon-1)	voltage
	166	V(s2#25pin@56_polysilicon-1)	voltage
	167	V(s2#1pin@57_polysilicon-1)	voltage
	168	V(net@80#10pin@58_polysilicon-1)	voltage
	169	V(net@80#11pin@59_polysilicon-1)	voltage
	170	V(net@80#6pin@60_polysilicon-1)	voltage
	171	V(net@80)	voltage
	172	V(s1#14pin@77_polysilicon-1)	voltage
	173	V(s1#27pin@80_polysilicon-1)	voltage
	174	V(s1#30pin@81_polysilicon-1)	voltage
	175	V(s1#12pin@86_polysilicon-1)	voltage
	176	V(s1#13pin@87_polysilicon-1)	voltage
	177	V(net@7#9pin@88_polysilicon-1)	voltage
	178	V(net@7#10pin@89_polysilicon-1)	voltage
	179	V(net@7#3pin@90_polysilicon-1)	voltage
	180	V(net@7#4pin@92_polysilicon-1)	voltage
	181	V(s1#19pin@100_polysilicon-1)	voltage
	182	V(s1#21pin@103_polysilicon-1)	voltage
	183	V(s1#22pin@104_polysilicon-1)	voltage
	184	V(s1#29pin@109_polysilicon-1)	voltage
	185	V(s1#16pin@110_polysilicon-1)	voltage
	186	V(net@8#1pin@111_polysilicon-1)	voltage
	187	V(net@8#2pin@112_polysilicon-1)	voltage
	188	V(net@8#3pin@113_polysilicon-1)	voltage
	189	V(net@8#6pin@115_polysilicon-1)	voltage
	190	V(s2#5pin@123_polysilicon-1)	voltage
	191	V(s2#9pin@126_polysilicon-1)	voltage
	192	V(s2#10pin@127_polysilicon-1)	voltage
	193	V(s2#17pin@131_polysilicon-1)	voltage
	194	V(s2#3pin@132_polysilicon-1)	voltage
	195	V(net@123#10pin@133_polysilicon-1)	voltage
	196	V(net@123#11pin@134_polysilicon-1)	voltage
	197	V(net@123#6pin@135_polysilicon-1)	voltage
	198	V(net@123#2pin@137_polysilicon-1)	voltage
	199	V(s0#3pin@160_polysilicon-1)	voltage
	200	V(s0#5pin@163_polysilicon-1)	voltage
	201	V(s0#6pin@164_polysilicon-1)	voltage
	202	V(s0#11pin@169_polysilicon-1)	voltage
	203	V(s0#1pin@170_polysilicon-1)	voltage
	204	V(net@270#10pin@171_polysilicon-1)	voltage
	205	V(net@270#11pin@172_polysilicon-1)	voltage
	206	V(net@270#4pin@173_polysilicon-1)	voltage
	207	V(net@270#5pin@175_polysilicon-1)	voltage
	208	V(net@1001#23pin@199_polysilicon-1)	voltage
	209	V(net@1001#30pin@202_polysilicon-1)	voltage
	210	V(net@1001#33pin@203_polysilicon-1)	voltage
	211	V(net@1001#25pin@208_polysilicon-1)	voltage
	212	V(net@1001#26pin@209_polysilicon-1)	voltage
	213	V(net@1000#8pin@210_polysilicon-1)	voltage
	214	V(net@1000#9pin@211_polysilicon-1)	voltage
	215	V(net@1000#2pin@212_polysilicon-1)	voltage
	216	V(net@1000#3pin@214_polysilicon-1)	voltage
	217	V(net@1001#38pin@222_polysilicon-1)	voltage
	218	V(net@1001#42pin@225_polysilicon-1)	voltage
	219	V(net@1001#43pin@226_polysilicon-1)	voltage
	220	V(net@1001#32pin@231_polysilicon-1)	voltage
	221	V(net@1001#35pin@232_polysilicon-1)	voltage
	222	V(net@1064)	voltage
	223	V(net@1064#1pin@234_polysilicon-1)	voltage
	224	V(net@1064#10pin@235_polysilicon-1)	voltage
	225	V(net@1064#4pin@237_polysilicon-1)	voltage
	226	V(s2#35pin@245_polysilicon-1)	voltage
	227	V(s2#31pin@248_polysilicon-1)	voltage
	228	V(s2#32pin@249_polysilicon-1)	voltage
	229	V(s2#43pin@253_polysilicon-1)	voltage
	230	V(s2#44pin@254_polysilicon-1)	voltage
	231	V(net@1082#10pin@255_polysilicon-1)	voltage
	232	V(net@1082#11pin@256_polysilicon-1)	voltage
	233	V(net@1082#5pin@257_polysilicon-1)	voltage
	234	V(net@1082#6pin@259_polysilicon-1)	voltage
	235	V(net@1001#14pin@274_polysilicon-1)	voltage
	236	V(net@1001#4pin@277_polysilicon-1)	voltage
	237	V(net@1001#10pin@278_polysilicon-1)	voltage
	238	V(net@1001#48pin@283_polysilicon-1)	voltage
	239	V(net@1001#49pin@284_polysilicon-1)	voltage
	240	V(net@1063#8pin@285_polysilicon-1)	voltage
	241	V(net@1063#9pin@286_polysilicon-1)	voltage
	242	V(net@1063#3pin@287_polysilicon-1)	voltage
	243	V(net@1063#2pin@289_polysilicon-1)	voltage
	244	V(net@1001#16pin@297_polysilicon-1)	voltage
	245	V(net@1001#53pin@300_polysilicon-1)	voltage
	246	V(net@1001#54pin@301_polysilicon-1)	voltage
	247	V(net@1001#6pin@306_polysilicon-1)	voltage
	248	V(net@1001#12pin@307_polysilicon-1)	voltage
	249	V(net@1028)	voltage
	250	V(net@1028#1pin@309_polysilicon-1)	voltage
	251	V(net@1028#2pin@310_polysilicon-1)	voltage
	252	V(net@1028#3pin@312_polysilicon-1)	voltage
	253	V(s2#30pin@320_polysilicon-1)	voltage
	254	V(s2#49pin@323_polysilicon-1)	voltage
	255	V(s2#50pin@324_polysilicon-1)	voltage
	256	V(s2#27pin@328_polysilicon-1)	voltage
	257	V(s2#28pin@329_polysilicon-1)	voltage
	258	V(net@1006#3pin@330_polysilicon-1)	voltage
	259	V(net@1006#4pin@331_polysilicon-1)	voltage
	260	V(net@1006#5pin@332_polysilicon-1)	voltage
	261	V(net@1006#1pin@334_polysilicon-1)	voltage
	262	V(s0#19pin@357_polysilicon-1)	voltage
	263	V(s0#21pin@360_polysilicon-1)	voltage
	264	V(s0#22pin@361_polysilicon-1)	voltage
	265	V(s0#27pin@366_polysilicon-1)	voltage
	266	V(s0#17pin@367_polysilicon-1)	voltage
	267	V(net@1102#10pin@368_polysilicon-1)	voltage
	268	V(net@1102#11pin@369_polysilicon-1)	voltage
	269	V(net@1102#4pin@370_polysilicon-1)	voltage
	270	V(net@1102#5pin@372_polysilicon-1)	voltage
	271	V(s3#3pin@403_polysilicon-1)	voltage
	272	V(s3#5pin@406_polysilicon-1)	voltage
	273	V(s3#6pin@407_polysilicon-1)	voltage
	274	V(s3#11pin@412_polysilicon-1)	voltage
	275	V(s3#1pin@413_polysilicon-1)	voltage
	276	V(net@1511#10pin@414_polysilicon-1)	voltage
	277	V(net@1511#11pin@415_polysilicon-1)	voltage
	278	V(net@1511#4pin@416_polysilicon-1)	voltage
	279	V(net@1511#5pin@418_polysilicon-1)	voltage
	280	V(net@8#1pin@111_polysilicon-1##0)	voltage
	281	V(net@8#1pin@111_polysilicon-1##1)	voltage
	282	V(net@8#1pin@111_polysilicon-1##2)	voltage
	283	V(net@8#1pin@111_polysilicon-1##3)	voltage
	284	V(net@8#1pin@111_polysilicon-1##4)	voltage
	285	V(net@24##0)	voltage
	286	V(net@24##1)	voltage
	287	V(net@24##2)	voltage
	288	V(net@24##3)	voltage
	289	V(net@24##4)	voltage
	290	V(net@8#2pin@112_polysilicon-1##0)	voltage
	291	V(net@8#2pin@112_polysilicon-1##1)	voltage
	292	V(net@8#2pin@112_polysilicon-1##2)	voltage
	293	V(net@8#2pin@112_polysilicon-1##3)	voltage
	294	V(net@8#2pin@112_polysilicon-1##4)	voltage
	295	V(net@8#2pin@112_polysilicon-1##5)	voltage
	296	V(net@8#2pin@112_polysilicon-1##6)	voltage
	297	V(net@7#3pin@90_polysilicon-1##0)	voltage
	298	V(net@7#3pin@90_polysilicon-1##1)	voltage
	299	V(net@7#3pin@90_polysilicon-1##2)	voltage
	300	V(net@7#3pin@90_polysilicon-1##3)	voltage
	301	V(net@7#7nmos@9_poly-right##0)	voltage
	302	V(s2##0)	voltage
	303	V(s2##1)	voltage
	304	V(s2##2)	voltage
	305	V(s2##3)	voltage
	306	V(s2##4)	voltage
	307	V(s2##5)	voltage
	308	V(s2##6)	voltage
	309	V(s1#11nmos@11_poly-left##0)	voltage
	310	V(s1#12pin@86_polysilicon-1##0)	voltage
	311	V(s1#12pin@86_polysilicon-1##1)	voltage
	312	V(s1#12pin@86_polysilicon-1##2)	voltage
	313	V(s1#12pin@86_polysilicon-1##3)	voltage
	314	V(s1#12pin@86_polysilicon-1##4)	voltage
	315	V(s1#12pin@86_polysilicon-1##5)	voltage
	316	V(s1#12pin@86_polysilicon-1##6)	voltage
	317	V(s1#12pin@86_polysilicon-1##7)	voltage
	318	V(s1#12pin@86_polysilicon-1##8)	voltage
	319	V(s1#12pin@86_polysilicon-1##9)	voltage
	320	V(s1#12pin@86_polysilicon-1##10)	voltage
	321	V(s1#12pin@86_polysilicon-1##11)	voltage
	322	V(s1#12pin@86_polysilicon-1##12)	voltage
	323	V(s1#12pin@86_polysilicon-1##13)	voltage
	324	V(s1#12pin@86_polysilicon-1##14)	voltage
	325	V(s1#12pin@86_polysilicon-1##15)	voltage
	326	V(s1#12pin@86_polysilicon-1##16)	voltage
	327	V(s1#12pin@86_polysilicon-1##17)	voltage
	328	V(s1#12pin@86_polysilicon-1##18)	voltage
	329	V(s1#12pin@86_polysilicon-1##19)	voltage
	330	V(s1#12pin@86_polysilicon-1##20)	voltage
	331	V(s1#12pin@86_polysilicon-1##21)	voltage
	332	V(s1##0)	voltage
	333	V(s1##1)	voltage
	334	V(net@7#9pin@88_polysilicon-1##0)	voltage
	335	V(net@7#9pin@88_polysilicon-1##1)	voltage
	336	V(net@7#9pin@88_polysilicon-1##2)	voltage
	337	V(net@7#9pin@88_polysilicon-1##3)	voltage
	338	V(net@7#9pin@88_polysilicon-1##4)	voltage
	339	V(net@7#10pin@89_polysilicon-1##0)	voltage
	340	V(net@7#10pin@89_polysilicon-1##1)	voltage
	341	V(net@7#10pin@89_polysilicon-1##2)	voltage
	342	V(net@7#10pin@89_polysilicon-1##3)	voltage
	343	V(net@7#10pin@89_polysilicon-1##4)	voltage
	344	V(net@7#10pin@89_polysilicon-1##5)	voltage
	345	V(net@7#10pin@89_polysilicon-1##6)	voltage
	346	V(net@80##0)	voltage
	347	V(net@80##1)	voltage
	348	V(net@80##2)	voltage
	349	V(net@80##3)	voltage
	350	V(net@80##4)	voltage
	351	V(s1##2)	voltage
	352	V(s1##3)	voltage
	353	V(s1##4)	voltage
	354	V(s1##5)	voltage
	355	V(s1##6)	voltage
	356	V(net@8#6pin@115_polysilicon-1##0)	voltage
	357	V(net@8#6pin@115_polysilicon-1##1)	voltage
	358	V(net@8#6pin@115_polysilicon-1##2)	voltage
	359	V(net@8#6pin@115_polysilicon-1##3)	voltage
	360	V(net@8#6pin@115_polysilicon-1##4)	voltage
	361	V(s1#18nmos@13_poly-right##0)	voltage
	362	V(s1#18nmos@13_poly-right##1)	voltage
	363	V(s1#20pmos@12_poly-left##0)	voltage
	364	V(s1#21pin@103_polysilicon-1##0)	voltage
	365	V(s1#21pin@103_polysilicon-1##1)	voltage
	366	V(s1#21pin@103_polysilicon-1##2)	voltage
	367	V(s1#21pin@103_polysilicon-1##3)	voltage
	368	V(s1#21pin@103_polysilicon-1##4)	voltage
	369	V(s1#21pin@103_polysilicon-1##5)	voltage
	370	V(s1#21pin@103_polysilicon-1##6)	voltage
	371	V(s1#21pin@103_polysilicon-1##7)	voltage
	372	V(s1#21pin@103_polysilicon-1##8)	voltage
	373	V(s1#21pin@103_polysilicon-1##9)	voltage
	374	V(s1#21pin@103_polysilicon-1##10)	voltage
	375	V(s1#21pin@103_polysilicon-1##11)	voltage
	376	V(s1#22pin@104_polysilicon-1##0)	voltage
	377	V(s1#22pin@104_polysilicon-1##1)	voltage
	378	V(s1#22pin@104_polysilicon-1##2)	voltage
	379	V(s1#22pin@104_polysilicon-1##3)	voltage
	380	V(s1#22pin@104_polysilicon-1##4)	voltage
	381	V(s1#22pin@104_polysilicon-1##5)	voltage
	382	V(s1#19pin@100_polysilicon-1##0)	voltage
	383	V(net@7#4pin@92_polysilicon-1##0)	voltage
	384	V(net@7#4pin@92_polysilicon-1##1)	voltage
	385	V(net@7#4pin@92_polysilicon-1##2)	voltage
	386	V(net@7#4pin@92_polysilicon-1##3)	voltage
	387	V(net@7#4pin@92_polysilicon-1##4)	voltage
	388	V(net@8#3pin@113_polysilicon-1##0)	voltage
	389	V(net@8#3pin@113_polysilicon-1##1)	voltage
	390	V(net@8#3pin@113_polysilicon-1##2)	voltage
	391	V(net@8#3pin@113_polysilicon-1##3)	voltage
	392	V(net@123#2pin@137_polysilicon-1##0)	voltage
	393	V(net@123#2pin@137_polysilicon-1##1)	voltage
	394	V(net@123#2pin@137_polysilicon-1##2)	voltage
	395	V(net@123#2pin@137_polysilicon-1##3)	voltage
	396	V(net@123#2pin@137_polysilicon-1##4)	voltage
	397	V(net@24#1pin@37_polysilicon-1##0)	voltage
	398	V(net@24#1pin@37_polysilicon-1##1)	voltage
	399	V(net@24#1pin@37_polysilicon-1##2)	voltage
	400	V(net@24#1pin@37_polysilicon-1##3)	voltage
	401	V(net@24#1pin@37_polysilicon-1##4)	voltage
	402	V(net@24#1pin@37_polysilicon-1##5)	voltage
	403	V(net@24#1pin@37_polysilicon-1##6)	voltage
	404	V(s2#4nmos@16_poly-right##0)	voltage
	405	V(s2#4nmos@16_poly-right##1)	voltage
	406	V(s2#6nmos@7_poly-right##0)	voltage
	407	V(s2#6nmos@7_poly-right##1)	voltage
	408	V(s2#8pmos@15_poly-left##0)	voltage
	409	V(s2#9pin@126_polysilicon-1##0)	voltage
	410	V(s2#9pin@126_polysilicon-1##1)	voltage
	411	V(s2#9pin@126_polysilicon-1##2)	voltage
	412	V(s2#9pin@126_polysilicon-1##3)	voltage
	413	V(s2#9pin@126_polysilicon-1##4)	voltage
	414	V(s2#9pin@126_polysilicon-1##5)	voltage
	415	V(s2#9pin@126_polysilicon-1##6)	voltage
	416	V(s2#9pin@126_polysilicon-1##7)	voltage
	417	V(s2#9pin@126_polysilicon-1##8)	voltage
	418	V(s2#9pin@126_polysilicon-1##9)	voltage
	419	V(s2#9pin@126_polysilicon-1##10)	voltage
	420	V(s2#9pin@126_polysilicon-1##11)	voltage
	421	V(s2#10pin@127_polysilicon-1##0)	voltage
	422	V(s2#10pin@127_polysilicon-1##1)	voltage
	423	V(s2#10pin@127_polysilicon-1##2)	voltage
	424	V(s2#10pin@127_polysilicon-1##3)	voltage
	425	V(s2#10pin@127_polysilicon-1##4)	voltage
	426	V(s2#10pin@127_polysilicon-1##5)	voltage
	427	V(s2#5pin@123_polysilicon-1##0)	voltage
	428	V(net@8#11nmos@12_poly-right##0)	voltage
	429	V(net@123#6pin@135_polysilicon-1##0)	voltage
	430	V(net@123#6pin@135_polysilicon-1##1)	voltage
	431	V(net@123#6pin@135_polysilicon-1##2)	voltage
	432	V(net@123#6pin@135_polysilicon-1##3)	voltage
	433	V(s2#14pmos@6_poly-left##0)	voltage
	434	V(s1#25nmos@10_poly-right##0)	voltage
	435	V(s1#25nmos@10_poly-right##1)	voltage
	436	V(net@1#3pin@15_polysilicon-1##0)	voltage
	437	V(net@1#3pin@15_polysilicon-1##1)	voltage
	438	V(net@1#3pin@15_polysilicon-1##2)	voltage
	439	V(net@1#3pin@15_polysilicon-1##3)	voltage
	440	V(net@123#8nmos@15_poly-right##0)	voltage
	441	V(s1#26pmos@9_poly-left##0)	voltage
	442	V(s2#16nmos@17_poly-left##0)	voltage
	443	V(s2#17pin@131_polysilicon-1##0)	voltage
	444	V(s2#17pin@131_polysilicon-1##1)	voltage
	445	V(s2#17pin@131_polysilicon-1##2)	voltage
	446	V(s2#17pin@131_polysilicon-1##3)	voltage
	447	V(s2#17pin@131_polysilicon-1##4)	voltage
	448	V(s2#17pin@131_polysilicon-1##5)	voltage
	449	V(s2#17pin@131_polysilicon-1##6)	voltage
	450	V(s2#17pin@131_polysilicon-1##7)	voltage
	451	V(s2#17pin@131_polysilicon-1##8)	voltage
	452	V(s2#17pin@131_polysilicon-1##9)	voltage
	453	V(s2#17pin@131_polysilicon-1##10)	voltage
	454	V(s2#17pin@131_polysilicon-1##11)	voltage
	455	V(s2#17pin@131_polysilicon-1##12)	voltage
	456	V(s2#17pin@131_polysilicon-1##13)	voltage
	457	V(s2#17pin@131_polysilicon-1##14)	voltage
	458	V(s2#17pin@131_polysilicon-1##15)	voltage
	459	V(s2#17pin@131_polysilicon-1##16)	voltage
	460	V(s2#17pin@131_polysilicon-1##17)	voltage
	461	V(s2#17pin@131_polysilicon-1##18)	voltage
	462	V(s2#17pin@131_polysilicon-1##19)	voltage
	463	V(s2#17pin@131_polysilicon-1##20)	voltage
	464	V(s2#17pin@131_polysilicon-1##21)	voltage
	465	V(s1#28nmos@14_poly-left##0)	voltage
	466	V(s2#15pin@51_polysilicon-1##0)	voltage
	467	V(s2#15pin@51_polysilicon-1##1)	voltage
	468	V(s2#15pin@51_polysilicon-1##2)	voltage
	469	V(s2#15pin@51_polysilicon-1##3)	voltage
	470	V(s2#15pin@51_polysilicon-1##4)	voltage
	471	V(s2#15pin@51_polysilicon-1##5)	voltage
	472	V(s2#15pin@51_polysilicon-1##6)	voltage
	473	V(s2#15pin@51_polysilicon-1##7)	voltage
	474	V(s2#15pin@51_polysilicon-1##8)	voltage
	475	V(s2#15pin@51_polysilicon-1##9)	voltage
	476	V(s2#15pin@51_polysilicon-1##10)	voltage
	477	V(s2#15pin@51_polysilicon-1##11)	voltage
	478	V(net@123#10pin@133_polysilicon-1##0)	voltage
	479	V(net@123#10pin@133_polysilicon-1##1)	voltage
	480	V(net@123#10pin@133_polysilicon-1##2)	voltage
	481	V(net@123#10pin@133_polysilicon-1##3)	voltage
	482	V(net@123#10pin@133_polysilicon-1##4)	voltage
	483	V(net@123#11pin@134_polysilicon-1##0)	voltage
	484	V(net@123#11pin@134_polysilicon-1##1)	voltage
	485	V(net@123#11pin@134_polysilicon-1##2)	voltage
	486	V(net@123#11pin@134_polysilicon-1##3)	voltage
	487	V(net@123#11pin@134_polysilicon-1##4)	voltage
	488	V(net@123#11pin@134_polysilicon-1##5)	voltage
	489	V(net@123#11pin@134_polysilicon-1##6)	voltage
	490	V(s1#27pin@80_polysilicon-1##0)	voltage
	491	V(s1#27pin@80_polysilicon-1##1)	voltage
	492	V(s1#27pin@80_polysilicon-1##2)	voltage
	493	V(s1#27pin@80_polysilicon-1##3)	voltage
	494	V(s1#27pin@80_polysilicon-1##4)	voltage
	495	V(s1#27pin@80_polysilicon-1##5)	voltage
	496	V(s1#27pin@80_polysilicon-1##6)	voltage
	497	V(s1#27pin@80_polysilicon-1##7)	voltage
	498	V(s1#27pin@80_polysilicon-1##8)	voltage
	499	V(s1#27pin@80_polysilicon-1##9)	voltage
	500	V(s1#27pin@80_polysilicon-1##10)	voltage
	501	V(s1#27pin@80_polysilicon-1##11)	voltage
	502	V(s1#30pin@81_polysilicon-1##0)	voltage
	503	V(s1#30pin@81_polysilicon-1##1)	voltage
	504	V(s1#30pin@81_polysilicon-1##2)	voltage
	505	V(s1#30pin@81_polysilicon-1##3)	voltage
	506	V(s1#30pin@81_polysilicon-1##4)	voltage
	507	V(s1#30pin@81_polysilicon-1##5)	voltage
	508	V(s2#18pin@52_polysilicon-1##0)	voltage
	509	V(s2#18pin@52_polysilicon-1##1)	voltage
	510	V(s2#18pin@52_polysilicon-1##2)	voltage
	511	V(s2#18pin@52_polysilicon-1##3)	voltage
	512	V(s2#18pin@52_polysilicon-1##4)	voltage
	513	V(s2#18pin@52_polysilicon-1##5)	voltage
	514	V(s1#29pin@109_polysilicon-1##0)	voltage
	515	V(s1#29pin@109_polysilicon-1##1)	voltage
	516	V(s1#29pin@109_polysilicon-1##2)	voltage
	517	V(s1#29pin@109_polysilicon-1##3)	voltage
	518	V(s1#29pin@109_polysilicon-1##4)	voltage
	519	V(s1#29pin@109_polysilicon-1##5)	voltage
	520	V(s1#29pin@109_polysilicon-1##6)	voltage
	521	V(s1#29pin@109_polysilicon-1##7)	voltage
	522	V(s1#29pin@109_polysilicon-1##8)	voltage
	523	V(s1#29pin@109_polysilicon-1##9)	voltage
	524	V(s1#29pin@109_polysilicon-1##10)	voltage
	525	V(s1#29pin@109_polysilicon-1##11)	voltage
	526	V(s1#29pin@109_polysilicon-1##12)	voltage
	527	V(s1#29pin@109_polysilicon-1##13)	voltage
	528	V(s1#29pin@109_polysilicon-1##14)	voltage
	529	V(s1#29pin@109_polysilicon-1##15)	voltage
	530	V(s1#29pin@109_polysilicon-1##16)	voltage
	531	V(s1#29pin@109_polysilicon-1##17)	voltage
	532	V(s1#29pin@109_polysilicon-1##18)	voltage
	533	V(s1#29pin@109_polysilicon-1##19)	voltage
	534	V(s1#29pin@109_polysilicon-1##20)	voltage
	535	V(s1#29pin@109_polysilicon-1##21)	voltage
	536	V(s1#14pin@77_polysilicon-1##0)	voltage
	537	V(s2#7pin@48_polysilicon-1##0)	voltage
	538	V(net@270#4pin@173_polysilicon-1##0)	voltage
	539	V(net@270#4pin@173_polysilicon-1##1)	voltage
	540	V(net@270#4pin@173_polysilicon-1##2)	voltage
	541	V(net@270#4pin@173_polysilicon-1##3)	voltage
	542	V(net@270#6nmos@18_poly-right##0)	voltage
	543	V(s0#0pin@165_polysilicon-1##0)	voltage
	544	V(s0#0pin@165_polysilicon-1##1)	voltage
	545	V(s0#0pin@165_polysilicon-1##2)	voltage
	546	V(s0#0pin@165_polysilicon-1##3)	voltage
	547	V(s0#0pin@165_polysilicon-1##4)	voltage
	548	V(s0#0pin@165_polysilicon-1##5)	voltage
	549	V(s0#0pin@165_polysilicon-1##6)	voltage
	550	V(net@270#5pin@175_polysilicon-1##0)	voltage
	551	V(net@270#5pin@175_polysilicon-1##1)	voltage
	552	V(net@270#5pin@175_polysilicon-1##2)	voltage
	553	V(net@270#5pin@175_polysilicon-1##3)	voltage
	554	V(net@270#5pin@175_polysilicon-1##4)	voltage
	555	V(s0#2nmos@19_poly-right##0)	voltage
	556	V(s0#2nmos@19_poly-right##1)	voltage
	557	V(s0#4pmos@18_poly-left##0)	voltage
	558	V(s0#5pin@163_polysilicon-1##0)	voltage
	559	V(s0#5pin@163_polysilicon-1##1)	voltage
	560	V(s0#5pin@163_polysilicon-1##2)	voltage
	561	V(s0#5pin@163_polysilicon-1##3)	voltage
	562	V(s0#5pin@163_polysilicon-1##4)	voltage
	563	V(s0#5pin@163_polysilicon-1##5)	voltage
	564	V(s0#5pin@163_polysilicon-1##6)	voltage
	565	V(s0#5pin@163_polysilicon-1##7)	voltage
	566	V(s0#5pin@163_polysilicon-1##8)	voltage
	567	V(s0#5pin@163_polysilicon-1##9)	voltage
	568	V(s0#5pin@163_polysilicon-1##10)	voltage
	569	V(s0#5pin@163_polysilicon-1##11)	voltage
	570	V(s0#6pin@164_polysilicon-1##0)	voltage
	571	V(s0#6pin@164_polysilicon-1##1)	voltage
	572	V(s0#6pin@164_polysilicon-1##2)	voltage
	573	V(s0#6pin@164_polysilicon-1##3)	voltage
	574	V(s0#6pin@164_polysilicon-1##4)	voltage
	575	V(s0#6pin@164_polysilicon-1##5)	voltage
	576	V(s0#3pin@160_polysilicon-1##0)	voltage
	577	V(s0#10nmos@20_poly-left##0)	voltage
	578	V(s0#11pin@169_polysilicon-1##0)	voltage
	579	V(s0#11pin@169_polysilicon-1##1)	voltage
	580	V(s0#11pin@169_polysilicon-1##2)	voltage
	581	V(s0#11pin@169_polysilicon-1##3)	voltage
	582	V(s0#11pin@169_polysilicon-1##4)	voltage
	583	V(s0#11pin@169_polysilicon-1##5)	voltage
	584	V(s0#11pin@169_polysilicon-1##6)	voltage
	585	V(s0#11pin@169_polysilicon-1##7)	voltage
	586	V(s0#11pin@169_polysilicon-1##8)	voltage
	587	V(s0#11pin@169_polysilicon-1##9)	voltage
	588	V(s0#11pin@169_polysilicon-1##10)	voltage
	589	V(s0#11pin@169_polysilicon-1##11)	voltage
	590	V(s0#11pin@169_polysilicon-1##12)	voltage
	591	V(s0#11pin@169_polysilicon-1##13)	voltage
	592	V(s0#11pin@169_polysilicon-1##14)	voltage
	593	V(s0#11pin@169_polysilicon-1##15)	voltage
	594	V(s0#11pin@169_polysilicon-1##16)	voltage
	595	V(s0#11pin@169_polysilicon-1##17)	voltage
	596	V(s0#11pin@169_polysilicon-1##18)	voltage
	597	V(s0#11pin@169_polysilicon-1##19)	voltage
	598	V(s0#11pin@169_polysilicon-1##20)	voltage
	599	V(s0#11pin@169_polysilicon-1##21)	voltage
	600	V(net@1#6nmos@0_poly-right##0)	voltage
	601	V(net@270#10pin@171_polysilicon-1##0)	voltage
	602	V(net@270#10pin@171_polysilicon-1##1)	voltage
	603	V(net@270#10pin@171_polysilicon-1##2)	voltage
	604	V(net@270#10pin@171_polysilicon-1##3)	voltage
	605	V(net@270#10pin@171_polysilicon-1##4)	voltage
	606	V(net@270#11pin@172_polysilicon-1##0)	voltage
	607	V(net@270#11pin@172_polysilicon-1##1)	voltage
	608	V(net@270#11pin@172_polysilicon-1##2)	voltage
	609	V(net@270#11pin@172_polysilicon-1##3)	voltage
	610	V(net@270#11pin@172_polysilicon-1##4)	voltage
	611	V(net@270#11pin@172_polysilicon-1##5)	voltage
	612	V(net@270#11pin@172_polysilicon-1##6)	voltage
	613	V(net@24#4nmos@3_poly-right##0)	voltage
	614	V(net@80#6pin@60_polysilicon-1##0)	voltage
	615	V(net@80#6pin@60_polysilicon-1##1)	voltage
	616	V(net@80#6pin@60_polysilicon-1##2)	voltage
	617	V(net@80#6pin@60_polysilicon-1##3)	voltage
	618	V(s1#34nmos@1_poly-right##0)	voltage
	619	V(s1#34nmos@1_poly-right##1)	voltage
	620	V(s1#36nmos@2_poly-left##0)	voltage
	621	V(s1#37pin@11_polysilicon-1##0)	voltage
	622	V(s1#37pin@11_polysilicon-1##1)	voltage
	623	V(s1#37pin@11_polysilicon-1##2)	voltage
	624	V(s1#37pin@11_polysilicon-1##3)	voltage
	625	V(s1#37pin@11_polysilicon-1##4)	voltage
	626	V(s1#37pin@11_polysilicon-1##5)	voltage
	627	V(s1#37pin@11_polysilicon-1##6)	voltage
	628	V(s1#37pin@11_polysilicon-1##7)	voltage
	629	V(s1#37pin@11_polysilicon-1##8)	voltage
	630	V(s1#37pin@11_polysilicon-1##9)	voltage
	631	V(s1#37pin@11_polysilicon-1##10)	voltage
	632	V(s1#37pin@11_polysilicon-1##11)	voltage
	633	V(s1#37pin@11_polysilicon-1##12)	voltage
	634	V(s1#37pin@11_polysilicon-1##13)	voltage
	635	V(s1#37pin@11_polysilicon-1##14)	voltage
	636	V(s1#37pin@11_polysilicon-1##15)	voltage
	637	V(s1#37pin@11_polysilicon-1##16)	voltage
	638	V(s1#37pin@11_polysilicon-1##17)	voltage
	639	V(s1#37pin@11_polysilicon-1##18)	voltage
	640	V(s1#37pin@11_polysilicon-1##19)	voltage
	641	V(s1#37pin@11_polysilicon-1##20)	voltage
	642	V(s1#37pin@11_polysilicon-1##21)	voltage
	643	V(net@80#8nmos@6_poly-right##0)	voltage
	644	V(s1#39pmos@0_poly-left##0)	voltage
	645	V(s2#24nmos@8_poly-left##0)	voltage
	646	V(s2#25pin@56_polysilicon-1##0)	voltage
	647	V(s2#25pin@56_polysilicon-1##1)	voltage
	648	V(s2#25pin@56_polysilicon-1##2)	voltage
	649	V(s2#25pin@56_polysilicon-1##3)	voltage
	650	V(s2#25pin@56_polysilicon-1##4)	voltage
	651	V(s2#25pin@56_polysilicon-1##5)	voltage
	652	V(s2#25pin@56_polysilicon-1##6)	voltage
	653	V(s2#25pin@56_polysilicon-1##7)	voltage
	654	V(s2#25pin@56_polysilicon-1##8)	voltage
	655	V(s2#25pin@56_polysilicon-1##9)	voltage
	656	V(s2#25pin@56_polysilicon-1##10)	voltage
	657	V(s2#25pin@56_polysilicon-1##11)	voltage
	658	V(s2#25pin@56_polysilicon-1##12)	voltage
	659	V(s2#25pin@56_polysilicon-1##13)	voltage
	660	V(s2#25pin@56_polysilicon-1##14)	voltage
	661	V(s2#25pin@56_polysilicon-1##15)	voltage
	662	V(s2#25pin@56_polysilicon-1##16)	voltage
	663	V(s2#25pin@56_polysilicon-1##17)	voltage
	664	V(s2#25pin@56_polysilicon-1##18)	voltage
	665	V(s2#25pin@56_polysilicon-1##19)	voltage
	666	V(s2#25pin@56_polysilicon-1##20)	voltage
	667	V(s2#25pin@56_polysilicon-1##21)	voltage
	668	V(s1#41nmos@5_poly-left##0)	voltage
	669	V(net@80#10pin@58_polysilicon-1##0)	voltage
	670	V(net@80#10pin@58_polysilicon-1##1)	voltage
	671	V(net@80#10pin@58_polysilicon-1##2)	voltage
	672	V(net@80#10pin@58_polysilicon-1##3)	voltage
	673	V(net@80#10pin@58_polysilicon-1##4)	voltage
	674	V(net@80#11pin@59_polysilicon-1##0)	voltage
	675	V(net@80#11pin@59_polysilicon-1##1)	voltage
	676	V(net@80#11pin@59_polysilicon-1##2)	voltage
	677	V(net@80#11pin@59_polysilicon-1##3)	voltage
	678	V(net@80#11pin@59_polysilicon-1##4)	voltage
	679	V(net@80#11pin@59_polysilicon-1##5)	voltage
	680	V(net@80#11pin@59_polysilicon-1##6)	voltage
	681	V(s1#40pin@5_polysilicon-1##0)	voltage
	682	V(s1#40pin@5_polysilicon-1##1)	voltage
	683	V(s1#40pin@5_polysilicon-1##2)	voltage
	684	V(s1#40pin@5_polysilicon-1##3)	voltage
	685	V(s1#40pin@5_polysilicon-1##4)	voltage
	686	V(s1#40pin@5_polysilicon-1##5)	voltage
	687	V(s1#40pin@5_polysilicon-1##6)	voltage
	688	V(s1#40pin@5_polysilicon-1##7)	voltage
	689	V(s1#40pin@5_polysilicon-1##8)	voltage
	690	V(s1#40pin@5_polysilicon-1##9)	voltage
	691	V(s1#40pin@5_polysilicon-1##10)	voltage
	692	V(s1#40pin@5_polysilicon-1##11)	voltage