Title: *** SPICE deck for cell MUX_8_1_TG{lay} from library All_ICs
Date: Wed May 13 23:33:13 2020
Plotname: Transient Analysis
Flags: real forward
No. Variables: 1531
No. Points:          582
Offset:   0.0000000000000000e+000
Command: Linear Technology Corporation LTspice IV
Variables:
	0	time	time
	1	V(net@0)	voltage
	2	V(net@1#8nmos@0_poly-right)	voltage
	3	V(i4)	voltage
	4	V(net@1)	voltage
	5	V(s1#5nmos@1_poly-right)	voltage
	6	V(s1#18nmos@2_poly-left)	voltage
	7	V(i6)	voltage
	8	V(net@14)	voltage
	9	V(net@5)	voltage
	10	V(i5)	voltage
	11	V(net@5#6contact@28_metal-1-n-act)	voltage
	12	V(s1#22nmos@4_poly-right)	voltage
	13	V(s1#0nmos@5_poly-left)	voltage
	14	V(i7)	voltage
	15	V(net@18)	voltage
	16	V(net@19#8nmos@6_poly-right)	voltage
	17	V(net@19)	voltage
	18	V(s2#2nmos@7_poly-right)	voltage
	19	V(s2#10nmos@8_poly-left)	voltage
	20	V(net@196)	voltage
	21	V(net@197#7nmos@9_poly-right)	voltage
	22	V(i0)	voltage
	23	V(net@197)	voltage
	24	V(s1#47nmos@10_poly-right)	voltage
	25	V(s1#33nmos@11_poly-left)	voltage
	26	V(i2)	voltage
	27	V(net@214)	voltage
	28	V(net@198#11nmos@12_poly-right)	voltage
	29	V(i1)	voltage
	30	V(net@198#4contact@101_metal-1-n-act)	voltage
	31	V(s1#40nmos@13_poly-right)	voltage
	32	V(s1#50nmos@14_poly-left)	voltage
	33	V(i3)	voltage
	34	V(net@286)	voltage
	35	V(net@297#8nmos@15_poly-right)	voltage
	36	V(net@297)	voltage
	37	V(s2#14nmos@16_poly-right)	voltage
	38	V(s2#22nmos@17_poly-left)	voltage
	39	V(out)	voltage
	40	V(net@436#6nmos@18_poly-right)	voltage
	41	V(net@436)	voltage
	42	V(s0#2nmos@19_poly-right)	voltage
	43	V(s0#10nmos@20_poly-left)	voltage
	44	V(s1#7pmos@0_poly-left)	voltage
	45	V(vdd)	voltage
	46	V(s1#12pmos@1_poly-right)	voltage
	47	V(net@1#9pmos@2_poly-left)	voltage
	48	V(s1#23pmos@3_poly-left)	voltage
	49	V(s1#26pmos@4_poly-right)	voltage
	50	V(net@5#2pmos@5_poly-left)	voltage
	51	V(s2#4pmos@6_poly-left)	voltage
	52	V(s2#8pmos@7_poly-right)	voltage
	53	V(net@19#9pmos@8_poly-left)	voltage
	54	V(s1#48pmos@9_poly-left)	voltage
	55	V(s1#53pmos@10_poly-right)	voltage
	56	V(net@197#8pmos@11_poly-left)	voltage
	57	V(s1#42pmos@12_poly-left)	voltage
	58	V(s1#46pmos@13_poly-right)	voltage
	59	V(net@198)	voltage
	60	V(s2#16pmos@15_poly-left)	voltage
	61	V(s2#20pmos@16_poly-right)	voltage
	62	V(net@297#9pmos@17_poly-left)	voltage
	63	V(s0#4pmos@18_poly-left)	voltage
	64	V(s0#8pmos@19_poly-right)	voltage
	65	V(net@436#9pmos@20_poly-left)	voltage
	66	V(s1)	voltage
	67	V(s2)	voltage
	68	V(s0#0pin@177_polysilicon-1)	voltage
	69	V(s0)	voltage
	70	V(s1#6pin@2_polysilicon-1)	voltage
	71	V(s1#8pin@5_polysilicon-1)	voltage
	72	V(s1#9pin@6_polysilicon-1)	voltage
	73	V(s1#19pin@11_polysilicon-1)	voltage
	74	V(s1#20pin@12_polysilicon-1)	voltage
	75	V(net@1#10pin@13_polysilicon-1)	voltage
	76	V(net@1#11pin@14_polysilicon-1)	voltage
	77	V(net@1#5pin@15_polysilicon-1)	voltage
	78	V(net@1#6pin@17_polysilicon-1)	voltage
	79	V(s1#4pin@25_polysilicon-1)	voltage
	80	V(s1#24pin@28_polysilicon-1)	voltage
	81	V(s1#25pin@29_polysilicon-1)	voltage
	82	V(s1#1pin@34_polysilicon-1)	voltage
	83	V(s1#2pin@35_polysilicon-1)	voltage
	84	V(net@5#3pin@36_polysilicon-1)	voltage
	85	V(net@5#4pin@37_polysilicon-1)	voltage
	86	V(net@5#5pin@38_polysilicon-1)	voltage
	87	V(net@5#1pin@40_polysilicon-1)	voltage
	88	V(s2#3pin@48_polysilicon-1)	voltage
	89	V(s2#5pin@51_polysilicon-1)	voltage
	90	V(s2#6pin@52_polysilicon-1)	voltage
	91	V(s2#11pin@56_polysilicon-1)	voltage
	92	V(s2#1pin@57_polysilicon-1)	voltage
	93	V(net@19#10pin@58_polysilicon-1)	voltage
	94	V(net@19#11pin@59_polysilicon-1)	voltage
	95	V(net@19#6pin@60_polysilicon-1)	voltage
	96	V(net@19#2pin@62_polysilicon-1)	voltage
	97	V(s1#36pin@77_polysilicon-1)	voltage
	98	V(s1#49pin@80_polysilicon-1)	voltage
	99	V(s1#52pin@81_polysilicon-1)	voltage
	100	V(s1#34pin@86_polysilicon-1)	voltage
	101	V(s1#35pin@87_polysilicon-1)	voltage
	102	V(net@197#9pin@88_polysilicon-1)	voltage
	103	V(net@197#10pin@89_polysilicon-1)	voltage
	104	V(net@197#3pin@90_polysilicon-1)	voltage
	105	V(net@197#4pin@92_polysilicon-1)	voltage
	106	V(s1#41pin@100_polysilicon-1)	voltage
	107	V(s1#43pin@103_polysilicon-1)	voltage
	108	V(s1#44pin@104_polysilicon-1)	voltage
	109	V(s1#51pin@109_polysilicon-1)	voltage
	110	V(s1#38pin@110_polysilicon-1)	voltage
	111	V(net@198#1pin@111_polysilicon-1)	voltage
	112	V(net@198#2pin@112_polysilicon-1)	voltage
	113	V(net@198#3pin@113_polysilicon-1)	voltage
	114	V(net@198#6pin@115_polysilicon-1)	voltage
	115	V(s2#15pin@123_polysilicon-1)	voltage
	116	V(s2#17pin@126_polysilicon-1)	voltage
	117	V(s2#18pin@127_polysilicon-1)	voltage
	118	V(s2#23pin@131_polysilicon-1)	voltage
	119	V(s2#13pin@132_polysilicon-1)	voltage
	120	V(net@297#10pin@133_polysilicon-1)	voltage
	121	V(net@297#11pin@134_polysilicon-1)	voltage
	122	V(net@297#6pin@135_polysilicon-1)	voltage
	123	V(net@297#2pin@137_polysilicon-1)	voltage
	124	V(s0#3pin@172_polysilicon-1)	voltage
	125	V(s0#5pin@175_polysilicon-1)	voltage
	126	V(s0#6pin@176_polysilicon-1)	voltage
	127	V(s0#11pin@181_polysilicon-1)	voltage
	128	V(s0#1pin@182_polysilicon-1)	voltage
	129	V(net@436#10pin@183_polysilicon-1)	voltage
	130	V(net@436#11pin@184_polysilicon-1)	voltage
	131	V(net@436#4pin@185_polysilicon-1)	voltage
	132	V(net@436#5pin@187_polysilicon-1)	voltage
	133	V(net@5##0)	voltage
	134	V(s1#0nmos@5_poly-left##0)	voltage
	135	V(s1#1pin@34_polysilicon-1##0)	voltage
	136	V(s1#1pin@34_polysilicon-1##1)	voltage
	137	V(s1#1pin@34_polysilicon-1##2)	voltage
	138	V(s1#1pin@34_polysilicon-1##3)	voltage
	139	V(s1#1pin@34_polysilicon-1##4)	voltage
	140	V(s1#1pin@34_polysilicon-1##5)	voltage
	141	V(s1#1pin@34_polysilicon-1##6)	voltage
	142	V(s1#1pin@34_polysilicon-1##7)	voltage
	143	V(s1#1pin@34_polysilicon-1##8)	voltage
	144	V(s1#1pin@34_polysilicon-1##9)	voltage
	145	V(s1#1pin@34_polysilicon-1##10)	voltage
	146	V(s1#1pin@34_polysilicon-1##11)	voltage
	147	V(s1#1pin@34_polysilicon-1##12)	voltage
	148	V(s1#1pin@34_polysilicon-1##13)	voltage
	149	V(s1#1pin@34_polysilicon-1##14)	voltage
	150	V(s1#1pin@34_polysilicon-1##15)	voltage
	151	V(s1#1pin@34_polysilicon-1##16)	voltage
	152	V(s1#1pin@34_polysilicon-1##17)	voltage
	153	V(s1#1pin@34_polysilicon-1##18)	voltage
	154	V(s1#1pin@34_polysilicon-1##19)	voltage
	155	V(s1#1pin@34_polysilicon-1##20)	voltage
	156	V(s1#1pin@34_polysilicon-1##21)	voltage
	157	V(s1##0)	voltage
	158	V(s1##1)	voltage
	159	V(net@5#3pin@36_polysilicon-1##0)	voltage
	160	V(net@5#3pin@36_polysilicon-1##1)	voltage
	161	V(net@5#3pin@36_polysilicon-1##2)	voltage
	162	V(net@5#3pin@36_polysilicon-1##3)	voltage
	163	V(net@5#3pin@36_polysilicon-1##4)	voltage
	164	V(net@5#4pin@37_polysilicon-1##0)	voltage
	165	V(net@5#4pin@37_polysilicon-1##1)	voltage
	166	V(net@5#4pin@37_polysilicon-1##2)	voltage
	167	V(net@5#4pin@37_polysilicon-1##3)	voltage
	168	V(net@5#4pin@37_polysilicon-1##4)	voltage
	169	V(net@5#4pin@37_polysilicon-1##5)	voltage
	170	V(net@5#4pin@37_polysilicon-1##6)	voltage
	171	V(s2##0)	voltage
	172	V(s2##1)	voltage
	173	V(s2##2)	voltage
	174	V(s2##3)	voltage
	175	V(s2##4)	voltage
	176	V(s2##5)	voltage
	177	V(s2##6)	voltage
	178	V(net@19#2pin@62_polysilicon-1##0)	voltage
	179	V(net@19#2pin@62_polysilicon-1##1)	voltage
	180	V(net@19#2pin@62_polysilicon-1##2)	voltage
	181	V(net@19#2pin@62_polysilicon-1##3)	voltage
	182	V(net@19#2pin@62_polysilicon-1##4)	voltage
	183	V(s2#2nmos@7_poly-right##0)	voltage
	184	V(s2#2nmos@7_poly-right##1)	voltage
	185	V(s2#4pmos@6_poly-left##0)	voltage
	186	V(s2#5pin@51_polysilicon-1##0)	voltage
	187	V(s2#5pin@51_polysilicon-1##1)	voltage
	188	V(s2#5pin@51_polysilicon-1##2)	voltage
	189	V(s2#5pin@51_polysilicon-1##3)	voltage
	190	V(s2#5pin@51_polysilicon-1##4)	voltage
	191	V(s2#5pin@51_polysilicon-1##5)	voltage
	192	V(s2#5pin@51_polysilicon-1##6)	voltage
	193	V(s2#5pin@51_polysilicon-1##7)	voltage
	194	V(s2#5pin@51_polysilicon-1##8)	voltage
	195	V(s2#5pin@51_polysilicon-1##9)	voltage
	196	V(s2#5pin@51_polysilicon-1##10)	voltage
	197	V(s2#5pin@51_polysilicon-1##11)	voltage
	198	V(s2#6pin@52_polysilicon-1##0)	voltage
	199	V(s2#6pin@52_polysilicon-1##1)	voltage
	200	V(s2#6pin@52_polysilicon-1##2)	voltage
	201	V(s2#6pin@52_polysilicon-1##3)	voltage
	202	V(s2#6pin@52_polysilicon-1##4)	voltage
	203	V(s2#6pin@52_polysilicon-1##5)	voltage
	204	V(s2#3pin@48_polysilicon-1##0)	voltage
	205	V(net@19#6pin@60_polysilicon-1##0)	voltage
	206	V(net@19#6pin@60_polysilicon-1##1)	voltage
	207	V(net@19#6pin@60_polysilicon-1##2)	voltage
	208	V(net@19#6pin@60_polysilicon-1##3)	voltage
	209	V(s1#5nmos@1_poly-right##0)	voltage
	210	V(s1#5nmos@1_poly-right##1)	voltage
	211	V(net@19#8nmos@6_poly-right##0)	voltage
	212	V(s1#7pmos@0_poly-left##0)	voltage
	213	V(s2#10nmos@8_poly-left##0)	voltage
	214	V(s2#11pin@56_polysilicon-1##0)	voltage
	215	V(s2#11pin@56_polysilicon-1##1)	voltage
	216	V(s2#11pin@56_polysilicon-1##2)	voltage
	217	V(s2#11pin@56_polysilicon-1##3)	voltage
	218	V(s2#11pin@56_polysilicon-1##4)	voltage
	219	V(s2#11pin@56_polysilicon-1##5)	voltage
	220	V(s2#11pin@56_polysilicon-1##6)	voltage
	221	V(s2#11pin@56_polysilicon-1##7)	voltage
	222	V(s2#11pin@56_polysilicon-1##8)	voltage
	223	V(s2#11pin@56_polysilicon-1##9)	voltage
	224	V(s2#11pin@56_polysilicon-1##10)	voltage
	225	V(s2#11pin@56_polysilicon-1##11)	voltage
	226	V(s2#11pin@56_polysilicon-1##12)	voltage
	227	V(s2#11pin@56_polysilicon-1##13)	voltage
	228	V(s2#11pin@56_polysilicon-1##14)	voltage
	229	V(s2#11pin@56_polysilicon-1##15)	voltage
	230	V(s2#11pin@56_polysilicon-1##16)	voltage
	231	V(s2#11pin@56_polysilicon-1##17)	voltage
	232	V(s2#11pin@56_polysilicon-1##18)	voltage
	233	V(s2#11pin@56_polysilicon-1##19)	voltage
	234	V(s2#11pin@56_polysilicon-1##20)	voltage
	235	V(s2#11pin@56_polysilicon-1##21)	voltage
	236	V(net@19#10pin@58_polysilicon-1##0)	voltage
	237	V(net@19#10pin@58_polysilicon-1##1)	voltage
	238	V(net@19#10pin@58_polysilicon-1##2)	voltage
	239	V(net@19#10pin@58_polysilicon-1##3)	voltage
	240	V(net@19#10pin@58_polysilicon-1##4)	voltage
	241	V(net@19#11pin@59_polysilicon-1##0)	voltage
	242	V(net@19#11pin@59_polysilicon-1##1)	voltage
	243	V(net@19#11pin@59_polysilicon-1##2)	voltage
	244	V(net@19#11pin@59_polysilicon-1##3)	voltage
	245	V(net@19#11pin@59_polysilicon-1##4)	voltage
	246	V(net@19#11pin@59_polysilicon-1##5)	voltage
	247	V(net@19#11pin@59_polysilicon-1##6)	voltage
	248	V(s1#8pin@5_polysilicon-1##0)	voltage
	249	V(s1#8pin@5_polysilicon-1##1)	voltage
	250	V(s1#8pin@5_polysilicon-1##2)	voltage
	251	V(s1#8pin@5_polysilicon-1##3)	voltage
	252	V(s1#8pin@5_polysilicon-1##4)	voltage
	253	V(s1#8pin@5_polysilicon-1##5)	voltage
	254	V(s1#8pin@5_polysilicon-1##6)	voltage
	255	V(s1#8pin@5_polysilicon-1##7)	voltage
	256	V(s1#8pin@5_polysilicon-1##8)	voltage
	257	V(s1#8pin@5_polysilicon-1##9)	voltage
	258	V(s1#8pin@5_polysilicon-1##10)	voltage
	259	V(s1#8pin@5_polysilicon-1##11)	voltage
	260	V(s1#9pin@6_polysilicon-1##0)	voltage
	261	V(s1#9pin@6_polysilicon-1##1)	voltage
	262	V(s1#9pin@6_polysilicon-1##2)	voltage
	263	V(s1#9pin@6_polysilicon-1##3)	voltage
	264	V(s1#9pin@6_polysilicon-1##4)	voltage
	265	V(s1#9pin@6_polysilicon-1##5)	voltage
	266	V(s1#6pin@2_polysilicon-1##0)	voltage
	267	V(net@1#5pin@15_polysilicon-1##0)	voltage
	268	V(net@1#5pin@15_polysilicon-1##1)	voltage
	269	V(net@1#5pin@15_polysilicon-1##2)	voltage
	270	V(net@1#5pin@15_polysilicon-1##3)	voltage
	271	V(net@1#8nmos@0_poly-right##0)	voltage
	272	V(s1#18nmos@2_poly-left##0)	voltage
	273	V(s1#19pin@11_polysilicon-1##0)	voltage
	274	V(s1#19pin@11_polysilicon-1##1)	voltage
	275	V(s1#19pin@11_polysilicon-1##2)	voltage
	276	V(s1#19pin@11_polysilicon-1##3)	voltage
	277	V(s1#19pin@11_polysilicon-1##4)	voltage
	278	V(s1#19pin@11_polysilicon-1##5)	voltage
	279	V(s1#19pin@11_polysilicon-1##6)	voltage
	280	V(s1#19pin@11_polysilicon-1##7)	voltage
	281	V(s1#19pin@11_polysilicon-1##8)	voltage
	282	V(s1#19pin@11_polysilicon-1##9)	voltage
	283	V(s1#19pin@11_polysilicon-1##10)	voltage
	284	V(s1#19pin@11_polysilicon-1##11)	voltage
	285	V(s1#19pin@11_polysilicon-1##12)	voltage
	286	V(s1#19pin@11_polysilicon-1##13)	voltage
	287	V(s1#19pin@11_polysilicon-1##14)	voltage
	288	V(s1#19pin@11_polysilicon-1##15)	voltage
	289	V(s1#19pin@11_polysilicon-1##16)	voltage
	290	V(s1#19pin@11_polysilicon-1##17)	voltage
	291	V(s1#19pin@11_polysilicon-1##18)	voltage
	292	V(s1#19pin@11_polysilicon-1##19)	voltage
	293	V(s1#19pin@11_polysilicon-1##20)	voltage
	294	V(s1#19pin@11_polysilicon-1##21)	voltage
	295	V(net@1#10pin@13_polysilicon-1##0)	voltage
	296	V(net@1#10pin@13_polysilicon-1##1)	voltage
	297	V(net@1#10pin@13_polysilicon-1##2)	voltage
	298	V(net@1#10pin@13_polysilicon-1##3)	voltage
	299	V(net@1#10pin@13_polysilicon-1##4)	voltage
	300	V(net@1#11pin@14_polysilicon-1##0)	voltage
	301	V(net@1#11pin@14_polysilicon-1##1)	voltage
	302	V(net@1#11pin@14_polysilicon-1##2)	voltage
	303	V(net@1#11pin@14_polysilicon-1##3)	voltage
	304	V(net@1#11pin@14_polysilicon-1##4)	voltage
	305	V(net@1#11pin@14_polysilicon-1##5)	voltage
	306	V(net@1#11pin@14_polysilicon-1##6)	voltage
	307	V(s1##2)	voltage
	308	V(s1##3)	voltage
	309	V(s1##4)	voltage
	310	V(s1##5)	voltage
	311	V(s1##6)	voltage
	312	V(net@5#1pin@40_polysilicon-1##0)	voltage
	313	V(net@5#1pin@40_polysilicon-1##1)	voltage
	314	V(net@5#1pin@40_polysilicon-1##2)	voltage
	315	V(net@5#1pin@40_polysilicon-1##3)	voltage
	316	V(net@5#1pin@40_polysilicon-1##4)	voltage
	317	V(s1#22nmos@4_poly-right##0)	voltage
	318	V(s1#22nmos@4_poly-right##1)	voltage
	319	V(s1#23pmos@3_poly-left##0)	voltage
	320	V(s1#24pin@28_polysilicon-1##0)	voltage
	321	V(s1#24pin@28_polysilicon-1##1)	voltage
	322	V(s1#24pin@28_polysilicon-1##2)	voltage
	323	V(s1#24pin@28_polysilicon-1##3)	voltage
	324	V(s1#24pin@28_polysilicon-1##4)	voltage
	325	V(s1#24pin@28_polysilicon-1##5)	voltage
	326	V(s1#24pin@28_polysilicon-1##6)	voltage
	327	V(s1#24pin@28_polysilicon-1##7)	voltage
	328	V(s1#24pin@28_polysilicon-1##8)	voltage
	329	V(s1#24pin@28_polysilicon-1##9)	voltage
	330	V(s1#24pin@28_polysilicon-1##10)	voltage
	331	V(s1#24pin@28_polysilicon-1##11)	voltage
	332	V(s1#25pin@29_polysilicon-1##0)	voltage
	333	V(s1#25pin@29_polysilicon-1##1)	voltage
	334	V(s1#25pin@29_polysilicon-1##2)	voltage
	335	V(s1#25pin@29_polysilicon-1##3)	voltage
	336	V(s1#25pin@29_polysilicon-1##4)	voltage
	337	V(s1#25pin@29_polysilicon-1##5)	voltage
	338	V(s1#4pin@25_polysilicon-1##0)	voltage
	339	V(net@1#6pin@17_polysilicon-1##0)	voltage
	340	V(net@1#6pin@17_polysilicon-1##1)	voltage
	341	V(net@1#6pin@17_polysilicon-1##2)	voltage
	342	V(net@1#6pin@17_polysilicon-1##3)	voltage
	343	V(net@1#6pin@17_polysilicon-1##4)	voltage
	344	V(net@5#5pin@38_polysilicon-1##0)	voltage
	345	V(net@5#5pin@38_polysilicon-1##1)	voltage
	346	V(net@5#5pin@38_polysilicon-1##2)	voltage
	347	V(net@5#5pin@38_polysilicon-1##3)	voltage
	348	V(net@198#1pin@111_polysilicon-1##0)	voltage
	349	V(net@198#1pin@111_polysilicon-1##1)	voltage
	350	V(net@198#1pin@111_polysilicon-1##2)	voltage
	351	V(net@198#1pin@111_polysilicon-1##3)	voltage
	352	V(net@198#1pin@111_polysilicon-1##4)	voltage
	353	V(net@198#2pin@112_polysilicon-1##0)	voltage
	354	V(net@198#2pin@112_polysilicon-1##1)	voltage
	355	V(net@198#2pin@112_polysilicon-1##2)	voltage
	356	V(net@198#2pin@112_polysilicon-1##3)	voltage
	357	V(net@198#2pin@112_polysilicon-1##4)	voltage
	358	V(net@198#2pin@112_polysilicon-1##5)	voltage
	359	V(net@198#2pin@112_polysilicon-1##6)	voltage
	360	V(net@197#3pin@90_polysilicon-1##0)	voltage
	361	V(net@197#3pin@90_polysilicon-1##1)	voltage
	362	V(net@197#3pin@90_polysilicon-1##2)	voltage
	363	V(net@197#3pin@90_polysilicon-1##3)	voltage
	364	V(net@197#7nmos@9_poly-right##0)	voltage
	365	V(s1#33nmos@11_poly-left##0)	voltage
	366	V(s1#34pin@86_polysilicon-1##0)	voltage
	367	V(s1#34pin@86_polysilicon-1##1)	voltage
	368	V(s1#34pin@86_polysilicon-1##2)	voltage
	369	V(s1#34pin@86_polysilicon-1##3)	voltage
	370	V(s1#34pin@86_polysilicon-1##4)	voltage
	371	V(s1#34pin@86_polysilicon-1##5)	voltage
	372	V(s1#34pin@86_polysilicon-1##6)	voltage
	373	V(s1#34pin@86_polysilicon-1##7)	voltage
	374	V(s1#34pin@86_polysilicon-1##8)	voltage
	375	V(s1#34pin@86_polysilicon-1##9)	voltage
	376	V(s1#34pin@86_polysilicon-1##10)	voltage
	377	V(s1#34pin@86_polysilicon-1##11)	voltage
	378	V(s1#34pin@86_polysilicon-1##12)	voltage
	379	V(s1#34pin@86_polysilicon-1##13)	voltage
	380	V(s1#34pin@86_polysilicon-1##14)	voltage
	381	V(s1#34pin@86_polysilicon-1##15)	voltage
	382	V(s1#34pin@86_polysilicon-1##16)	voltage
	383	V(s1#34pin@86_polysilicon-1##17)	voltage
	384	V(s1#34pin@86_polysilicon-1##18)	voltage
	385	V(s1#34pin@86_polysilicon-1##19)	voltage
	386	V(s1#34pin@86_polysilicon-1##20)	voltage
	387	V(s1#34pin@86_polysilicon-1##21)	voltage
	388	V(net@197#9pin@88_polysilicon-1##0)	voltage
	389	V(net@197#9pin@88_polysilicon-1##1)	voltage
	390	V(net@197#9pin@88_polysilicon-1##2)	voltage
	391	V(net@197#9pin@88_polysilicon-1##3)	voltage
	392	V(net@197#9pin@88_polysilicon-1##4)	voltage
	393	V(net@197#10pin@89_polysilicon-1##0)	voltage
	394	V(net@197#10pin@89_polysilicon-1##1)	voltage
	395	V(net@197#10pin@89_polysilicon-1##2)	voltage
	396	V(net@197#10pin@89_polysilicon-1##3)	voltage
	397	V(net@197#10pin@89_polysilicon-1##4)	voltage
	398	V(net@197#10pin@89_polysilicon-1##5)	voltage
	399	V(net@197#10pin@89_polysilicon-1##6)	voltage
	400	V(net@198#6pin@115_polysilicon-1##0)	voltage
	401	V(net@198#6pin@115_polysilicon-1##1)	voltage
	402	V(net@198#6pin@115_polysilicon-1##2)	voltage
	403	V(net@198#6pin@115_polysilicon-1##3)	voltage
	404	V(net@198#6pin@115_polysilicon-1##4)	voltage
	405	V(s1#40nmos@13_poly-right##0)	voltage
	406	V(s1#40nmos@13_poly-right##1)	voltage
	407	V(s1#42pmos@12_poly-left##0)	voltage
	408	V(s1#43pin@103_polysilicon-1##0)	voltage
	409	V(s1#43pin@103_polysilicon-1##1)	voltage
	410	V(s1#43pin@103_polysilicon-1##2)	voltage
	411	V(s1#43pin@103_polysilicon-1##3)	voltage
	412	V(s1#43pin@103_polysilicon-1##4)	voltage
	413	V(s1#43pin@103_polysilicon-1##5)	voltage
	414	V(s1#43pin@103_polysilicon-1##6)	voltage
	415	V(s1#43pin@103_polysilicon-1##7)	voltage
	416	V(s1#43pin@103_polysilicon-1##8)	voltage
	417	V(s1#43pin@103_polysilicon-1##9)	voltage
	418	V(s1#43pin@103_polysilicon-1##10)	voltage
	419	V(s1#43pin@103_polysilicon-1##11)	voltage
	420	V(s1#44pin@104_polysilicon-1##0)	voltage
	421	V(s1#44pin@104_polysilicon-1##1)	voltage
	422	V(s1#44pin@104_polysilicon-1##2)	voltage
	423	V(s1#44pin@104_polysilicon-1##3)	voltage
	424	V(s1#44pin@104_polysilicon-1##4)	voltage
	425	V(s1#44pin@104_polysilicon-1##5)	voltage
	426	V(s1#41pin@100_polysilicon-1##0)	voltage
	427	V(net@197#4pin@92_polysilicon-1##0)	voltage
	428	V(net@197#4pin@92_polysilicon-1##1)	voltage
	429	V(net@197#4pin@92_polysilicon-1##2)	voltage
	430	V(net@197#4pin@92_polysilicon-1##3)	voltage
	431	V(net@197#4pin@92_polysilicon-1##4)	voltage
	432	V(net@198#3pin@113_polysilicon-1##0)	voltage
	433	V(net@198#3pin@113_polysilicon-1##1)	voltage
	434	V(net@198#3pin@113_polysilicon-1##2)	voltage
	435	V(net@198#3pin@113_polysilicon-1##3)	voltage
	436	V(net@297#2pin@137_polysilicon-1##0)	voltage
	437	V(net@297#2pin@137_polysilicon-1##1)	voltage
	438	V(net@297#2pin@137_polysilicon-1##2)	voltage
	439	V(net@297#2pin@137_polysilicon-1##3)	voltage
	440	V(net@297#2pin@137_polysilicon-1##4)	voltage
	441	V(s2#14nmos@16_poly-right##0)	voltage
	442	V(s2#14nmos@16_poly-right##1)	voltage
	443	V(s2#16pmos@15_poly-left##0)	voltage
	444	V(s2#17pin@126_polysilicon-1##0)	voltage
	445	V(s2#17pin@126_polysilicon-1##1)	voltage
	446	V(s2#17pin@126_polysilicon-1##2)	voltage
	447	V(s2#17pin@126_polysilicon-1##3)	voltage
	448	V(s2#17pin@126_polysilicon-1##4)	voltage
	449	V(s2#17pin@126_polysilicon-1##5)	voltage
	450	V(s2#17pin@126_polysilicon-1##6)	voltage
	451	V(s2#17pin@126_polysilicon-1##7)	voltage
	452	V(s2#17pin@126_polysilicon-1##8)	voltage
	453	V(s2#17pin@126_polysilicon-1##9)	voltage
	454	V(s2#17pin@126_polysilicon-1##10)	voltage
	455	V(s2#17pin@126_polysilicon-1##11)	voltage
	456	V(s2#18pin@127_polysilicon-1##0)	voltage
	457	V(s2#18pin@127_polysilicon-1##1)	voltage
	458	V(s2#18pin@127_polysilicon-1##2)	voltage
	459	V(s2#18pin@127_polysilicon-1##3)	voltage
	460	V(s2#18pin@127_polysilicon-1##4)	voltage
	461	V(s2#18pin@127_polysilicon-1##5)	voltage
	462	V(s2#15pin@123_polysilicon-1##0)	voltage
	463	V(net@198#11nmos@12_poly-right##0)	voltage
	464	V(net@297#6pin@135_polysilicon-1##0)	voltage
	465	V(net@297#6pin@135_polysilicon-1##1)	voltage
	466	V(net@297#6pin@135_polysilicon-1##2)	voltage
	467	V(net@297#6pin@135_polysilicon-1##3)	voltage
	468	V(s1#47nmos@10_poly-right##0)	voltage
	469	V(s1#47nmos@10_poly-right##1)	voltage
	470	V(net@297#8nmos@15_poly-right##0)	voltage
	471	V(s1#48pmos@9_poly-left##0)	voltage
	472	V(s2#22nmos@17_poly-left##0)	voltage
	473	V(s2#23pin@131_polysilicon-1##0)	voltage
	474	V(s2#23pin@131_polysilicon-1##1)	voltage
	475	V(s2#23pin@131_polysilicon-1##2)	voltage
	476	V(s2#23pin@131_polysilicon-1##3)	voltage
	477	V(s2#23pin@131_polysilicon-1##4)	voltage
	478	V(s2#23pin@131_polysilicon-1##5)	voltage
	479	V(s2#23pin@131_polysilicon-1##6)	voltage
	480	V(s2#23pin@131_polysilicon-1##7)	voltage
	481	V(s2#23pin@131_polysilicon-1##8)	voltage
	482	V(s2#23pin@131_polysilicon-1##9)	voltage
	483	V(s2#23pin@131_polysilicon-1##10)	voltage
	484	V(s2#23pin@131_polysilicon-1##11)	voltage
	485	V(s2#23pin@131_polysilicon-1##12)	voltage
	486	V(s2#23pin@131_polysilicon-1##13)	voltage
	487	V(s2#23pin@131_polysilicon-1##14)	voltage
	488	V(s2#23pin@131_polysilicon-1##15)	voltage
	489	V(s2#23pin@131_polysilicon-1##16)	voltage
	490	V(s2#23pin@131_polysilicon-1##17)	voltage
	491	V(s2#23pin@131_polysilicon-1##18)	voltage
	492	V(s2#23pin@131_polysilicon-1##19)	voltage
	493	V(s2#23pin@131_polysilicon-1##20)	voltage
	494	V(s2#23pin@131_polysilicon-1##21)	voltage
	495	V(s1#50nmos@14_poly-left##0)	voltage
	496	V(net@297#10pin@133_polysilicon-1##0)	voltage
	497	V(net@297#10pin@133_polysilicon-1##1)	voltage
	498	V(net@297#10pin@133_polysilicon-1##2)	voltage
	499	V(net@297#10pin@133_polysilicon-1##3)	voltage
	500	V(net@297#10pin@133_polysilicon-1##4)	voltage
	501	V(net@297#11pin@134_polysilicon-1##0)	voltage
	502	V(net@297#11pin@134_polysilicon-1##1)	voltage
	503	V(net@297#11pin@134_polysilicon-1##2)	voltage
	504	V(net@297#11pin@134_polysilicon-1##3)	voltage
	505	V(net@297#11pin@134_polysilicon-1##4)	voltage
	506	V(net@297#11pin@134_polysilicon-1##5)	voltage
	507	V(net@297#11pin@134_polysilicon-1##6)	voltage
	508	V(s1#49pin@80_polysilicon-1##0)	voltage
	509	V(s1#49pin@80_polysilicon-1##1)	voltage
	510	V(s1#49pin@80_polysilicon-1##2)	voltage
	511	V(s1#49pin@80_polysilicon-1##3)	voltage
	512	V(s1#49pin@80_polysilicon-1##4)	voltage
	513	V(s1#49pin@80_polysilicon-1##5)	voltage
	514	V(s1#49pin@80_polysilicon-1##6)	voltage
	515	V(s1#49pin@80_polysilicon-1##7)	voltage
	516	V(s1#49pin@80_polysilicon-1##8)	voltage
	517	V(s1#49pin@80_polysilicon-1##9)	voltage
	518	V(s1#49pin@80_polysilicon-1##10)	voltage
	519	V(s1#49pin@80_polysilicon-1##11)	voltage
	520	V(s1#52pin@81_polysilicon-1##0)	voltage
	521	V(s1#52pin@81_polysilicon-1##1)	voltage
	522	V(s1#52pin@81_polysilicon-1##2)	voltage
	523	V(s1#52pin@81_polysilicon-1##3)	voltage
	524	V(s1#52pin@81_polysilicon-1##4)	voltage
	525	V(s1#52pin@81_polysilicon-1##5)	voltage
	526	V(s1#51pin@109_polysilicon-1##0)	voltage
	527	V(s1#51pin@109_polysilicon-1##1)	voltage
	528	V(s1#51pin@109_polysilicon-1##2)	voltage
	529	V(s1#51pin@109_polysilicon-1##3)	voltage
	530	V(s1#51pin@109_polysilicon-1##4)	voltage
	531	V(s1#51pin@109_polysilicon-1##5)	voltage
	532	V(s1#51pin@109_polysilicon-1##6)	voltage
	533	V(s1#51pin@109_polysilicon-1##7)	voltage
	534	V(s1#51pin@109_polysilicon-1##8)	voltage
	535	V(s1#51pin@109_polysilicon-1##9)	voltage
	536	V(s1#51pin@109_polysilicon-1##10)	voltage
	537	V(s1#51pin@109_polysilicon-1##11)	voltage
	538	V(s1#51pin@109_polysilicon-1##12)	voltage
	539	V(s1#51pin@109_polysilicon-1##13)	voltage
	540	V(s1#51pin@109_polysilicon-1##14)	voltage
	541	V(s1#51pin@109_polysilicon-1##15)	voltage
	542	V(s1#51pin@109_polysilicon-1##16)	voltage
	543	V(s1#51pin@109_polysilicon-1##17)	voltage
	544	V(s1#51pin@109_polysilicon-1##18)	voltage
	545	V(s1#51pin@109_polysilicon-1##19)	voltage
	546	V(s1#51pin@109_polysilicon-1##20)	voltage
	547	V(s1#51pin@109_polysilicon-1##21)	voltage
	548	V(s1#36pin@77_polysilicon-1##0)	voltage
	549	V(net@436#4pin@185_polysilicon-1##0)	voltage
	550	V(net@436#4pin@185_polysilicon-1##1)	voltage
	551	V(net@436#4pin@185_polysilicon-1##2)	voltage
	552	V(net@436#4pin@185_polysilicon-1##3)	voltage
	553	V(net@436#6nmos@18_poly-right##0)	voltage
	554	V(s0#0pin@177_polysilicon-1##0)	voltage
	555	V(s0#0pin@177_polysilicon-1##1)	voltage
	556	V(s0#0pin@177_polysilicon-1##2)	voltage
	557	V(s0#0pin@177_polysilicon-1##3)	voltage
	558	V(s0#0pin@177_polysilicon-1##4)	voltage
	559	V(s0#0pin@177_polysilicon-1##5)	voltage
	560	V(s0#0pin@177_polysilicon-1##6)	voltage
	561	V(net@436#5pin@187_polysilicon-1##0)	voltage
	562	V(net@436#5pin@187_polysilicon-1##1)	voltage
	563	V(net@436#5pin@187_polysilicon-1##2)	voltage
	564	V(net@436#5pin@187_polysilicon-1##3)	voltage
	565	V(net@436#5pin@187_polysilicon-1##4)	voltage
	566	V(s0#2nmos@19_poly-right##0)	voltage
	567	V(s0#2nmos@19_poly-right##1)	voltage
	568	V(s0#4pmos@18_poly-left##0)	voltage
	569	V(s0#5pin@175_polysilicon-1##0)	voltage
	570	V(s0#5pin@175_polysilicon-1##1)	voltage
	571	V(s0#5pin@175_polysilicon-1##2)	voltage
	572	V(s0#5pin@175_polysilicon-1##3)	voltage
	573	V(s0#5pin@175_polysilicon-1##4)	voltage
	574	V(s0#5pin@175_polysilicon-1##5)	voltage
	575	V(s0#5pin@175_polysilicon-1##6)	voltage
	576	V(s0#5pin@175_polysilicon-1##7)	voltage
	577	V(s0#5pin@175_polysilicon-1##8)	voltage
	578	V(s0#5pin@175_polysilicon-1##9)	voltage
	579	V(s0#5pin@175_polysilicon-1##10)	voltage
	580	V(s0#5pin@175_polysilicon-1##11)	voltage
	581	V(s0#6pin@176_polysilicon-1##0)	voltage
	582	V(s0#6pin@176_polysilicon-1##1)	voltage
	583	V(s0#6pin@176_polysilicon-1##2)	voltage
	584	V(s0#6pin@176_polysilicon-1##3)	voltage
	585	V(s0#6pin@176_polysilicon-1##4)	voltage
	586	V(s0#6pin@176_polysilicon-1##5)	voltage
	587	V(s0#3pin@172_polysilicon-1##0)	voltage
	588	V(s0#10nmos@20_poly-left##0)	voltage
	589	V(s0#11pin@181_polysilicon-1##0)	voltage
	590	V(s0#11pin@181_polysilicon-1##1)	voltage
	591	V(s0#11pin@181_polysilicon-1##2)	voltage
	592	V(s0#11pin@181_polysilicon-1##3)	voltage
	593	V(s0#11pin@181_polysilicon-1##4)	voltage
	594	V(s0#11pin@181_polysilicon-1##5)	voltage
	595	V(s0#11pin@181_polysilicon-1##6)	voltage
	596	V(s0#11pin@181_polysilicon-1##7)	voltage
	597	V(s0#11pin@181_polysilicon-1##8)	voltage
	598	V(s0#11pin@181_polysilicon-1##9)	voltage
	599	V(s0#11pin@181_polysilicon-1##10)	voltage
	600	V(s0#11pin@181_polysilicon-1##11)	voltage
	601	V(s0#11pin@181_polysilicon-1##12)	voltage
	602	V(s0#11pin@181_polysilicon-1##13)	voltage
	603	V(s0#11pin@181_polysilicon-1##14)	voltage
	604	V(s0#11pin@181_polysilicon-1##15)	voltage
	605	V(s0#11pin@181_polysilicon-1##16)	voltage
	606	V(s0#11pin@181_polysilicon-1##17)	voltage
	607	V(s0#11pin@181_polysilicon-1##18)	voltage
	608	V(s0#11pin@181_polysilicon-1##19)	voltage
	609	V(s0#11pin@181_polysilicon-1##20)	voltage
	610	V(s0#11pin@181_polysilicon-1##21)	voltage
	611	V(net@436#10pin@183_polysilicon-1##0)	voltage
	612	V(net@436#10pin@183_polysilicon-1##1)	voltage
	613	V(net@436#10pin@183_polysilicon-1##2)	voltage
	614	V(net@436#10pin@183_polysilicon-1##3)	voltage
	615	V(net@436#10pin@183_polysilicon-1##4)	voltage
	616	V(net@436#11pin@184_polysilicon-1##0)	voltage
	617	V(net@436#11pin@184_polysilicon-1##1)	voltage
	618	V(net@436#11pin@184_polysilicon-1##2)	voltage
	619	V(net@436#11pin@184_polysilicon-1##3)	voltage
	620	V(net@436#11pin@184_polysilicon-1##4)	voltage
	621	V(net@436#11pin@184_polysilicon-1##5)	voltage
	622	V(net@436#11pin@184_polysilicon-1##6)	voltage
	623	Id(Mpmos@20)	device_current
	624	Ig(Mpmos@20)	device_current
	625	Ib(Mpmos@20)	device_current
	626	Is(Mpmos@20)	device_current
	627	Id(Mpmos@19)	device_current
	628	Ig(Mpmos@19)	device_current
	629	Ib(Mpmos@19)	device_current
	630	Is(Mpmos@19)	device_current
	631	Id(Mpmos@18)	device_current
	632	Ig(Mpmos@18)	device_current
	633	Ib(Mpmos@18)	device_current
	634	Is(Mpmos@18)	device_current
	635	Id(Mpmos@17)	device_current
	636	Ig(Mpmos@17)	device_current
	637	Ib(Mpmos@17)	device_current
	638	Is(Mpmos@17)	device_current
	639	Id(Mpmos@16)	device_current
	640	Ig(Mpmos@16)	device_current
	641	Ib(Mpmos@16)	device_current
	642	Is(Mpmos@16)	device_current
	643	Id(Mpmos@15)	device_current
	644	Ig(Mpmos@15)	device_current
	645	Ib(Mpmos@15)	device_current
	646	Is(Mpmos@15)	device_current
	647	Id(Mpmos@14)	device_current
	648	Ig(Mpmos@14)	device_current
	649	Ib(Mpmos@14)	device_current
	650	Is(Mpmos@14)	device_current
	651	Id(Mpmos@13)	device_current
	652	Ig(Mpmos@13)	device_current
	653	Ib(Mpmos@13)	device_current
	654	Is(Mpmos@13)	device_current
	655	Id(Mpmos@12)	device_current
	656	Ig(Mpmos@12)	device_current
	657	Ib(Mpmos@12)	device_current
	658	Is(Mpmos@12)	device_current
	659	Id(Mpmos@11)	device_current
	660	Ig(Mpmos@11)	device_current
	661	Ib(Mpmos@11)	device_current
	662	Is(Mpmos@11)	device_current
	663	Id(Mpmos@10)	device_current
	664	Ig(Mpmos@10)	device_current
	665	Ib(Mpmos@10)	device_current
	666	Is(Mpmos@10)	device_current
	667	Id(Mpmos@9)	device_current
	668	Ig(Mpmos@9)	device_current
	669	Ib(Mpmos@9)	device_current
	670	Is(Mpmos@9)	device_current
	671	Id(Mpmos@8)	device_current
	672	Ig(Mpmos@8)	device_current
	673	Ib(Mpmos@8)	device_current
	674	Is(Mpmos@8)	device_current
	675	Id(Mpmos@7)	device_current
	676	Ig(Mpmos@7)	device_current
	677	Ib(Mpmos@7)	device_current
	678	Is(Mpmos@7)	device_current
	679	Id(Mpmos@6)	device_current
	680	Ig(Mpmos@6)	device_current
	681	Ib(Mpmos@6)	device_current
	682	Is(Mpmos@6)	device_current
	683	Id(Mpmos@5)	device_current
	684	Ig(Mpmos@5)	device_current
	685	Ib(Mpmos@5)	device_current
	686	Is(Mpmos@5)	device_current
	687	Id(Mpmos@4)	device_current
	688	Ig(Mpmos@4)	device_current
	689	Ib(Mpmos@4)	device_current
	690	Is(Mpmos@4)	device_current
	691	Id(Mpmos@3)	device_current
	692	Ig(Mpmos@3)	device_current
	693	Ib(Mpmos@3)	device_current
	694	Is(Mpmos@3)	device_current
	695	Id(Mpmos@2)	device_current
	696	Ig(Mpmos@2)	device_current