Title: *** SPICE deck for cell MUX_16_1_TG{lay} from library MUX_16_1
Date: Wed May 13 21:15:00 2020
Plotname: Operating Point
Flags: real
No. Variables: 3251
No. Points:            1
Offset:   0.0000000000000000e+000
Command: Linear Technology Corporation LTspice IV
Variables:
	0	V(net@0)	voltage
	1	V(net@1#7nmos@0_poly-right)	voltage
	2	V(i4)	voltage
	3	V(net@1)	voltage
	4	V(s1#48nmos@1_poly-right)	voltage
	5	V(s1#6nmos@2_poly-left)	voltage
	6	V(i6)	voltage
	7	V(net@18)	voltage
	8	V(net@2#11nmos@3_poly-right)	voltage
	9	V(i5)	voltage
	10	V(net@2#4contact@26_metal-1-n-act)	voltage
	11	V(s1#13nmos@4_poly-right)	voltage
	12	V(s1#51nmos@5_poly-left)	voltage
	13	V(i7)	voltage
	14	V(net@14)	voltage
	15	V(net@97#8nmos@6_poly-right)	voltage
	16	V(net@97)	voltage
	17	V(s2#7nmos@7_poly-right)	voltage
	18	V(s2#25nmos@8_poly-left)	voltage
	19	V(net@104)	voltage
	20	V(net@105#7nmos@9_poly-right)	voltage
	21	V(i0)	voltage
	22	V(net@105)	voltage
	23	V(s1#40nmos@10_poly-right)	voltage
	24	V(s1#26nmos@11_poly-left)	voltage
	25	V(i2)	voltage
	26	V(net@123)	voltage
	27	V(net@106#11nmos@12_poly-right)	voltage
	28	V(i1)	voltage
	29	V(net@106#4contact@95_metal-1-n-act)	voltage
	30	V(s1#33nmos@13_poly-right)	voltage
	31	V(s1#43nmos@14_poly-left)	voltage
	32	V(i3)	voltage
	33	V(net@199)	voltage
	34	V(net@210#8nmos@15_poly-right)	voltage
	35	V(net@210)	voltage
	36	V(s2#5nmos@16_poly-right)	voltage
	37	V(s2#17nmos@17_poly-left)	voltage
	38	V(net@349)	voltage
	39	V(net@350#6nmos@18_poly-right)	voltage
	40	V(net@350)	voltage
	41	V(s0#2nmos@19_poly-right)	voltage
	42	V(s0#10nmos@20_poly-left)	voltage
	43	V(net@514)	voltage
	44	V(net@576)	voltage
	45	V(i12)	voltage
	46	V(net@576#4pin@204_metal-1)	voltage
	47	V(s1#55nmos@22_poly-right)	voltage
	48	V(s1#57nmos@23_poly-left)	voltage
	49	V(i14)	voltage
	50	V(net@610)	voltage
	51	V(net@578)	voltage
	52	V(i13)	voltage
	53	V(net@578#2contact@208_metal-1-n-act)	voltage
	54	V(s1#72nmos@25_poly-right)	voltage
	55	V(s1#62nmos@26_poly-left)	voltage
	56	V(i15)	voltage
	57	V(net@523)	voltage
	58	V(net@495#6nmos@27_poly-right)	voltage
	59	V(net@495)	voltage
	60	V(s2#39nmos@28_poly-right)	voltage
	61	V(s2#29nmos@29_poly-left)	voltage
	62	V(net@726)	voltage
	63	V(net@727#7nmos@30_poly-right)	voltage
	64	V(i8)	voltage
	65	V(net@727)	voltage
	66	V(s1#102nmos@31_poly-right)	voltage
	67	V(s1#88nmos@32_poly-left)	voltage
	68	V(i10)	voltage
	69	V(net@747)	voltage
	70	V(net@728#11nmos@33_poly-right)	voltage
	71	V(i9)	voltage
	72	V(net@728#4contact@277_metal-1-n-act)	voltage
	73	V(s1#95nmos@34_poly-right)	voltage
	74	V(s1#105nmos@35_poly-left)	voltage
	75	V(i11)	voltage
	76	V(net@518)	voltage
	77	V(net@844#8nmos@36_poly-right)	voltage
	78	V(net@844)	voltage
	79	V(s2#37nmos@37_poly-right)	voltage
	80	V(s2#48nmos@38_poly-left)	voltage
	81	V(net@508)	voltage
	82	V(net@510#6nmos@39_poly-right)	voltage
	83	V(net@510)	voltage
	84	V(s0#17nmos@40_poly-right)	voltage
	85	V(s0#25nmos@41_poly-left)	voltage
	86	V(out)	voltage
	87	V(net@1014#6nmos@42_poly-right)	voltage
	88	V(net@1014)	voltage
	89	V(s3#2nmos@43_poly-right)	voltage
	90	V(s3#10nmos@44_poly-left)	voltage
	91	V(s1#49pmos@0_poly-left)	voltage
	92	V(vdd)	voltage
	93	V(s1#54pmos@1_poly-right)	voltage
	94	V(net@1#8pmos@2_poly-left)	voltage
	95	V(s1#15pmos@3_poly-left)	voltage
	96	V(s1#19pmos@4_poly-right)	voltage
	97	V(net@2)	voltage
	98	V(s2#15pmos@6_poly-left)	voltage
	99	V(s2#21pmos@7_poly-right)	voltage
	100	V(net@97#9pmos@8_poly-left)	voltage
	101	V(s1#41pmos@9_poly-left)	voltage
	102	V(s1#46pmos@10_poly-right)	voltage
	103	V(net@105#8pmos@11_poly-left)	voltage
	104	V(s1#35pmos@12_poly-left)	voltage
	105	V(s1#39pmos@13_poly-right)	voltage
	106	V(net@106)	voltage
	107	V(s2#9pmos@15_poly-left)	voltage
	108	V(s2#13pmos@16_poly-right)	voltage
	109	V(net@210#9pmos@17_poly-left)	voltage
	110	V(s0#4pmos@18_poly-left)	voltage
	111	V(s0#8pmos@19_poly-right)	voltage
	112	V(net@350#9pmos@20_poly-left)	voltage
	113	V(s1#60pmos@21_poly-left)	voltage
	114	V(s1#68pmos@22_poly-right)	voltage
	115	V(net@576#2pmos@23_poly-left)	voltage
	116	V(s1#73pmos@24_poly-left)	voltage
	117	V(s1#76pmos@25_poly-right)	voltage
	118	V(net@578#11pmos@26_poly-left)	voltage
	119	V(s2#46pmos@27_poly-left)	voltage
	120	V(s2#51pmos@28_poly-right)	voltage
	121	V(net@495#7pmos@29_poly-left)	voltage
	122	V(s1#103pmos@30_poly-left)	voltage
	123	V(s1#108pmos@31_poly-right)	voltage
	124	V(net@727#8pmos@32_poly-left)	voltage
	125	V(s1#97pmos@33_poly-left)	voltage
	126	V(s1#101pmos@34_poly-right)	voltage
	127	V(net@728)	voltage
	128	V(s2#40pmos@36_poly-left)	voltage
	129	V(s2#44pmos@37_poly-right)	voltage
	130	V(net@844#9pmos@38_poly-left)	voltage
	131	V(s0#19pmos@39_poly-left)	voltage
	132	V(s0#23pmos@40_poly-right)	voltage
	133	V(net@510#9pmos@41_poly-left)	voltage
	134	V(s3#4pmos@42_poly-left)	voltage
	135	V(s3#8pmos@43_poly-right)	voltage
	136	V(net@1014#9pmos@44_poly-left)	voltage
	137	V(s1)	voltage
	138	V(s2)	voltage
	139	V(s0)	voltage
	140	V(s1#64contact@192_metal-1-polysilicon-1)	voltage
	141	V(s3)	voltage
	142	V(s1#9pin@2_polysilicon-1)	voltage
	143	V(s1#50pin@5_polysilicon-1)	voltage
	144	V(s1#53pin@6_polysilicon-1)	voltage
	145	V(s1#7pin@11_polysilicon-1)	voltage
	146	V(s1#8pin@12_polysilicon-1)	voltage
	147	V(net@1#9pin@13_polysilicon-1)	voltage
	148	V(net@1#10pin@14_polysilicon-1)	voltage
	149	V(net@1#3pin@15_polysilicon-1)	voltage
	150	V(net@1#4pin@17_polysilicon-1)	voltage
	151	V(s1#14pin@25_polysilicon-1)	voltage
	152	V(s1#16pin@28_polysilicon-1)	voltage
	153	V(s1#17pin@29_polysilicon-1)	voltage
	154	V(s1#52pin@34_polysilicon-1)	voltage
	155	V(s1#11pin@35_polysilicon-1)	voltage
	156	V(net@2#1pin@36_polysilicon-1)	voltage
	157	V(net@2#2pin@37_polysilicon-1)	voltage
	158	V(net@2#3pin@38_polysilicon-1)	voltage
	159	V(net@2#6pin@40_polysilicon-1)	voltage
	160	V(s2#8pin@48_polysilicon-1)	voltage
	161	V(s2#16pin@51_polysilicon-1)	voltage
	162	V(s2#19pin@52_polysilicon-1)	voltage
	163	V(s2#26pin@56_polysilicon-1)	voltage
	164	V(s2#2pin@57_polysilicon-1)	voltage
	165	V(net@97#10pin@58_polysilicon-1)	voltage
	166	V(net@97#11pin@59_polysilicon-1)	voltage
	167	V(net@97#6pin@60_polysilicon-1)	voltage
	168	V(net@97#2pin@62_polysilicon-1)	voltage
	169	V(s1#29pin@77_polysilicon-1)	voltage
	170	V(s1#42pin@80_polysilicon-1)	voltage
	171	V(s1#45pin@81_polysilicon-1)	voltage
	172	V(s1#27pin@86_polysilicon-1)	voltage
	173	V(s1#28pin@87_polysilicon-1)	voltage
	174	V(net@105#9pin@88_polysilicon-1)	voltage
	175	V(net@105#10pin@89_polysilicon-1)	voltage
	176	V(net@105#3pin@90_polysilicon-1)	voltage
	177	V(net@105#4pin@92_polysilicon-1)	voltage
	178	V(s1#34pin@100_polysilicon-1)	voltage
	179	V(s1#36pin@103_polysilicon-1)	voltage
	180	V(s1#37pin@104_polysilicon-1)	voltage
	181	V(s1#44pin@109_polysilicon-1)	voltage
	182	V(s1#31pin@110_polysilicon-1)	voltage
	183	V(net@106#1pin@111_polysilicon-1)	voltage
	184	V(net@106#2pin@112_polysilicon-1)	voltage
	185	V(net@106#3pin@113_polysilicon-1)	voltage
	186	V(net@106#6pin@115_polysilicon-1)	voltage
	187	V(s2#6pin@123_polysilicon-1)	voltage
	188	V(s2#10pin@126_polysilicon-1)	voltage
	189	V(s2#11pin@127_polysilicon-1)	voltage
	190	V(s2#18pin@131_polysilicon-1)	voltage
	191	V(s2#4pin@132_polysilicon-1)	voltage
	192	V(net@210#10pin@133_polysilicon-1)	voltage
	193	V(net@210#11pin@134_polysilicon-1)	voltage
	194	V(net@210#6pin@135_polysilicon-1)	voltage
	195	V(net@210#2pin@137_polysilicon-1)	voltage
	196	V(s0#3pin@161_polysilicon-1)	voltage
	197	V(s0#5pin@164_polysilicon-1)	voltage
	198	V(s0#6pin@165_polysilicon-1)	voltage
	199	V(s0#11pin@170_polysilicon-1)	voltage
	200	V(s0#1pin@171_polysilicon-1)	voltage
	201	V(net@350#10pin@172_polysilicon-1)	voltage
	202	V(net@350#11pin@173_polysilicon-1)	voltage
	203	V(net@350#4pin@174_polysilicon-1)	voltage
	204	V(net@350#5pin@176_polysilicon-1)	voltage
	205	V(s1#56pin@190_polysilicon-1)	voltage
	206	V(s1#61pin@193_polysilicon-1)	voltage
	207	V(s1#65pin@194_polysilicon-1)	voltage
	208	V(s1#58pin@199_polysilicon-1)	voltage
	209	V(s1#59pin@200_polysilicon-1)	voltage
	210	V(net@576#3pin@201_polysilicon-1)	voltage
	211	V(net@576#6pin@202_polysilicon-1)	voltage
	212	V(net@576#7pin@203_polysilicon-1)	voltage
	213	V(net@576#1pin@205_polysilicon-1)	voltage
	214	V(s1#70pin@213_polysilicon-1)	voltage
	215	V(s1#74pin@216_polysilicon-1)	voltage
	216	V(s1#75pin@217_polysilicon-1)	voltage
	217	V(s1#63pin@222_polysilicon-1)	voltage
	218	V(s1#67pin@223_polysilicon-1)	voltage
	219	V(net@578#9pin@224_polysilicon-1)	voltage
	220	V(net@578#10pin@225_polysilicon-1)	voltage
	221	V(net@578#7pin@226_polysilicon-1)	voltage
	222	V(net@578#1pin@228_polysilicon-1)	voltage
	223	V(s2#32pin@236_polysilicon-1)	voltage
	224	V(s2#47pin@239_polysilicon-1)	voltage
	225	V(s2#50pin@240_polysilicon-1)	voltage
	226	V(s2#30pin@244_polysilicon-1)	voltage
	227	V(s2#31pin@245_polysilicon-1)	voltage
	228	V(net@495#8pin@246_polysilicon-1)	voltage
	229	V(net@495#9pin@247_polysilicon-1)	voltage
	230	V(net@495#2pin@248_polysilicon-1)	voltage
	231	V(net@495#3pin@250_polysilicon-1)	voltage
	232	V(s1#91pin@265_polysilicon-1)	voltage
	233	V(s1#104pin@268_polysilicon-1)	voltage
	234	V(s1#107pin@269_polysilicon-1)	voltage
	235	V(s1#89pin@274_polysilicon-1)	voltage
	236	V(s1#90pin@275_polysilicon-1)	voltage
	237	V(net@727#9pin@276_polysilicon-1)	voltage
	238	V(net@727#10pin@277_polysilicon-1)	voltage
	239	V(net@727#3pin@278_polysilicon-1)	voltage
	240	V(net@727#4pin@280_polysilicon-1)	voltage
	241	V(s1#96pin@288_polysilicon-1)	voltage
	242	V(s1#98pin@291_polysilicon-1)	voltage
	243	V(s1#99pin@292_polysilicon-1)	voltage
	244	V(s1#106pin@297_polysilicon-1)	voltage
	245	V(s1#93pin@298_polysilicon-1)	voltage
	246	V(net@728#1pin@299_polysilicon-1)	voltage
	247	V(net@728#2pin@300_polysilicon-1)	voltage
	248	V(net@728#3pin@301_polysilicon-1)	voltage
	249	V(net@728#6pin@303_polysilicon-1)	voltage
	250	V(s2#38pin@311_polysilicon-1)	voltage
	251	V(s2#41pin@314_polysilicon-1)	voltage
	252	V(s2#42pin@315_polysilicon-1)	voltage
	253	V(s2#49pin@319_polysilicon-1)	voltage
	254	V(s2#36pin@320_polysilicon-1)	voltage
	255	V(net@844#10pin@321_polysilicon-1)	voltage
	256	V(net@844#11pin@322_polysilicon-1)	voltage
	257	V(net@844#6pin@323_polysilicon-1)	voltage
	258	V(net@844#2pin@325_polysilicon-1)	voltage
	259	V(s0#18pin@349_polysilicon-1)	voltage
	260	V(s0#20pin@352_polysilicon-1)	voltage
	261	V(s0#21pin@353_polysilicon-1)	voltage
	262	V(s0#26pin@358_polysilicon-1)	voltage
	263	V(s0#16pin@359_polysilicon-1)	voltage
	264	V(net@510#10pin@360_polysilicon-1)	voltage
	265	V(net@510#11pin@361_polysilicon-1)	voltage
	266	V(net@510#4pin@362_polysilicon-1)	voltage
	267	V(net@510#5pin@364_polysilicon-1)	voltage
	268	V(s3#3pin@393_polysilicon-1)	voltage
	269	V(s3#5pin@396_polysilicon-1)	voltage
	270	V(s3#6pin@397_polysilicon-1)	voltage
	271	V(s3#11pin@402_polysilicon-1)	voltage
	272	V(s3#1pin@403_polysilicon-1)	voltage
	273	V(net@1014#10pin@404_polysilicon-1)	voltage
	274	V(net@1014#11pin@405_polysilicon-1)	voltage
	275	V(net@1014#4pin@406_polysilicon-1)	voltage
	276	V(net@1014#5pin@408_polysilicon-1)	voltage
	277	V(net@2#1pin@36_polysilicon-1##0)	voltage
	278	V(net@2#1pin@36_polysilicon-1##1)	voltage
	279	V(net@2#1pin@36_polysilicon-1##2)	voltage
	280	V(net@2#1pin@36_polysilicon-1##3)	voltage
	281	V(net@2#1pin@36_polysilicon-1##4)	voltage
	282	V(net@2#2pin@37_polysilicon-1##0)	voltage
	283	V(net@2#2pin@37_polysilicon-1##1)	voltage
	284	V(net@2#2pin@37_polysilicon-1##2)	voltage
	285	V(net@2#2pin@37_polysilicon-1##3)	voltage
	286	V(net@2#2pin@37_polysilicon-1##4)	voltage
	287	V(net@2#2pin@37_polysilicon-1##5)	voltage
	288	V(net@2#2pin@37_polysilicon-1##6)	voltage
	289	V(net@1#3pin@15_polysilicon-1##0)	voltage
	290	V(net@1#3pin@15_polysilicon-1##1)	voltage
	291	V(net@1#3pin@15_polysilicon-1##2)	voltage
	292	V(net@1#3pin@15_polysilicon-1##3)	voltage
	293	V(net@1#7nmos@0_poly-right##0)	voltage
	294	V(s1#6nmos@2_poly-left##0)	voltage
	295	V(s1#7pin@11_polysilicon-1##0)	voltage
	296	V(s1#7pin@11_polysilicon-1##1)	voltage
	297	V(s1#7pin@11_polysilicon-1##2)	voltage
	298	V(s1#7pin@11_polysilicon-1##3)	voltage
	299	V(s1#7pin@11_polysilicon-1##4)	voltage
	300	V(s1#7pin@11_polysilicon-1##5)	voltage
	301	V(s1#7pin@11_polysilicon-1##6)	voltage
	302	V(s1#7pin@11_polysilicon-1##7)	voltage
	303	V(s1#7pin@11_polysilicon-1##8)	voltage
	304	V(s1#7pin@11_polysilicon-1##9)	voltage
	305	V(s1#7pin@11_polysilicon-1##10)	voltage
	306	V(s1#7pin@11_polysilicon-1##11)	voltage
	307	V(s1#7pin@11_polysilicon-1##12)	voltage
	308	V(s1#7pin@11_polysilicon-1##13)	voltage
	309	V(s1#7pin@11_polysilicon-1##14)	voltage
	310	V(s1#7pin@11_polysilicon-1##15)	voltage
	311	V(s1#7pin@11_polysilicon-1##16)	voltage
	312	V(s1#7pin@11_polysilicon-1##17)	voltage
	313	V(s1#7pin@11_polysilicon-1##18)	voltage
	314	V(s1#7pin@11_polysilicon-1##19)	voltage
	315	V(s1#7pin@11_polysilicon-1##20)	voltage
	316	V(s1#7pin@11_polysilicon-1##21)	voltage
	317	V(s1##0)	voltage
	318	V(s1##1)	voltage
	319	V(net@1#9pin@13_polysilicon-1##0)	voltage
	320	V(net@1#9pin@13_polysilicon-1##1)	voltage
	321	V(net@1#9pin@13_polysilicon-1##2)	voltage
	322	V(net@1#9pin@13_polysilicon-1##3)	voltage
	323	V(net@1#9pin@13_polysilicon-1##4)	voltage
	324	V(net@1#10pin@14_polysilicon-1##0)	voltage
	325	V(net@1#10pin@14_polysilicon-1##1)	voltage
	326	V(net@1#10pin@14_polysilicon-1##2)	voltage
	327	V(net@1#10pin@14_polysilicon-1##3)	voltage
	328	V(net@1#10pin@14_polysilicon-1##4)	voltage
	329	V(net@1#10pin@14_polysilicon-1##5)	voltage
	330	V(net@1#10pin@14_polysilicon-1##6)	voltage
	331	V(s1##2)	voltage
	332	V(s1##3)	voltage
	333	V(s1##4)	voltage
	334	V(s1##5)	voltage
	335	V(s1##6)	voltage
	336	V(net@2#6pin@40_polysilicon-1##0)	voltage
	337	V(net@2#6pin@40_polysilicon-1##1)	voltage
	338	V(net@2#6pin@40_polysilicon-1##2)	voltage
	339	V(net@2#6pin@40_polysilicon-1##3)	voltage
	340	V(net@2#6pin@40_polysilicon-1##4)	voltage
	341	V(s1#13nmos@4_poly-right##0)	voltage
	342	V(s1#13nmos@4_poly-right##1)	voltage
	343	V(s1#15pmos@3_poly-left##0)	voltage
	344	V(s1#16pin@28_polysilicon-1##0)	voltage
	345	V(s1#16pin@28_polysilicon-1##1)	voltage
	346	V(s1#16pin@28_polysilicon-1##2)	voltage
	347	V(s1#16pin@28_polysilicon-1##3)	voltage
	348	V(s1#16pin@28_polysilicon-1##4)	voltage
	349	V(s1#16pin@28_polysilicon-1##5)	voltage
	350	V(s1#16pin@28_polysilicon-1##6)	voltage
	351	V(s1#16pin@28_polysilicon-1##7)	voltage
	352	V(s1#16pin@28_polysilicon-1##8)	voltage
	353	V(s1#16pin@28_polysilicon-1##9)	voltage
	354	V(s1#16pin@28_polysilicon-1##10)	voltage
	355	V(s1#16pin@28_polysilicon-1##11)	voltage
	356	V(s1#17pin@29_polysilicon-1##0)	voltage
	357	V(s1#17pin@29_polysilicon-1##1)	voltage
	358	V(s1#17pin@29_polysilicon-1##2)	voltage
	359	V(s1#17pin@29_polysilicon-1##3)	voltage
	360	V(s1#17pin@29_polysilicon-1##4)	voltage
	361	V(s1#17pin@29_polysilicon-1##5)	voltage
	362	V(s1#14pin@25_polysilicon-1##0)	voltage
	363	V(net@1#4pin@17_polysilicon-1##0)	voltage
	364	V(net@1#4pin@17_polysilicon-1##1)	voltage
	365	V(net@1#4pin@17_polysilicon-1##2)	voltage
	366	V(net@1#4pin@17_polysilicon-1##3)	voltage
	367	V(net@1#4pin@17_polysilicon-1##4)	voltage
	368	V(net@2#3pin@38_polysilicon-1##0)	voltage
	369	V(net@2#3pin@38_polysilicon-1##1)	voltage
	370	V(net@2#3pin@38_polysilicon-1##2)	voltage
	371	V(net@2#3pin@38_polysilicon-1##3)	voltage
	372	V(net@106#1pin@111_polysilicon-1##0)	voltage
	373	V(net@106#1pin@111_polysilicon-1##1)	voltage
	374	V(net@106#1pin@111_polysilicon-1##2)	voltage
	375	V(net@106#1pin@111_polysilicon-1##3)	voltage
	376	V(net@106#1pin@111_polysilicon-1##4)	voltage
	377	V(net@106#2pin@112_polysilicon-1##0)	voltage
	378	V(net@106#2pin@112_polysilicon-1##1)	voltage
	379	V(net@106#2pin@112_polysilicon-1##2)	voltage
	380	V(net@106#2pin@112_polysilicon-1##3)	voltage
	381	V(net@106#2pin@112_polysilicon-1##4)	voltage
	382	V(net@106#2pin@112_polysilicon-1##5)	voltage
	383	V(net@106#2pin@112_polysilicon-1##6)	voltage
	384	V(net@105#3pin@90_polysilicon-1##0)	voltage
	385	V(net@105#3pin@90_polysilicon-1##1)	voltage
	386	V(net@105#3pin@90_polysilicon-1##2)	voltage
	387	V(net@105#3pin@90_polysilicon-1##3)	voltage
	388	V(net@105#7nmos@9_poly-right##0)	voltage
	389	V(s2##0)	voltage
	390	V(s2##1)	voltage
	391	V(s2##2)	voltage
	392	V(s2##3)	voltage
	393	V(s2##4)	voltage
	394	V(s2##5)	voltage
	395	V(s2##6)	voltage
	396	V(s1#26nmos@11_poly-left##0)	voltage
	397	V(s1#27pin@86_polysilicon-1##0)	voltage
	398	V(s1#27pin@86_polysilicon-1##1)	voltage
	399	V(s1#27pin@86_polysilicon-1##2)	voltage
	400	V(s1#27pin@86_polysilicon-1##3)	voltage
	401	V(s1#27pin@86_polysilicon-1##4)	voltage
	402	V(s1#27pin@86_polysilicon-1##5)	voltage
	403	V(s1#27pin@86_polysilicon-1##6)	voltage
	404	V(s1#27pin@86_polysilicon-1##7)	voltage
	405	V(s1#27pin@86_polysilicon-1##8)	voltage
	406	V(s1#27pin@86_polysilicon-1##9)	voltage
	407	V(s1#27pin@86_polysilicon-1##10)	voltage
	408	V(s1#27pin@86_polysilicon-1##11)	voltage
	409	V(s1#27pin@86_polysilicon-1##12)	voltage
	410	V(s1#27pin@86_polysilicon-1##13)	voltage
	411	V(s1#27pin@86_polysilicon-1##14)	voltage
	412	V(s1#27pin@86_polysilicon-1##15)	voltage
	413	V(s1#27pin@86_polysilicon-1##16)	voltage
	414	V(s1#27pin@86_polysilicon-1##17)	voltage
	415	V(s1#27pin@86_polysilicon-1##18)	voltage
	416	V(s1#27pin@86_polysilicon-1##19)	voltage
	417	V(s1#27pin@86_polysilicon-1##20)	voltage
	418	V(s1#27pin@86_polysilicon-1##21)	voltage
	419	V(net@105#9pin@88_polysilicon-1##0)	voltage
	420	V(net@105#9pin@88_polysilicon-1##1)	voltage
	421	V(net@105#9pin@88_polysilicon-1##2)	voltage
	422	V(net@105#9pin@88_polysilicon-1##3)	voltage
	423	V(net@105#9pin@88_polysilicon-1##4)	voltage
	424	V(net@105#10pin@89_polysilicon-1##0)	voltage
	425	V(net@105#10pin@89_polysilicon-1##1)	voltage
	426	V(net@105#10pin@89_polysilicon-1##2)	voltage
	427	V(net@105#10pin@89_polysilicon-1##3)	voltage
	428	V(net@105#10pin@89_polysilicon-1##4)	voltage
	429	V(net@105#10pin@89_polysilicon-1##5)	voltage
	430	V(net@105#10pin@89_polysilicon-1##6)	voltage
	431	V(net@97#2pin@62_polysilicon-1##0)	voltage
	432	V(net@97#2pin@62_polysilicon-1##1)	voltage
	433	V(net@97#2pin@62_polysilicon-1##2)	voltage
	434	V(net@97#2pin@62_polysilicon-1##3)	voltage
	435	V(net@97#2pin@62_polysilicon-1##4)	voltage
	436	V(net@106#6pin@115_polysilicon-1##0)	voltage
	437	V(net@106#6pin@115_polysilicon-1##1)	voltage
	438	V(net@106#6pin@115_polysilicon-1##2)	voltage
	439	V(net@106#6pin@115_polysilicon-1##3)	voltage
	440	V(net@106#6pin@115_polysilicon-1##4)	voltage
	441	V(s1#33nmos@13_poly-right##0)	voltage
	442	V(s1#33nmos@13_poly-right##1)	voltage
	443	V(s1#35pmos@12_poly-left##0)	voltage
	444	V(s1#36pin@103_polysilicon-1##0)	voltage
	445	V(s1#36pin@103_polysilicon-1##1)	voltage
	446	V(s1#36pin@103_polysilicon-1##2)	voltage
	447	V(s1#36pin@103_polysilicon-1##3)	voltage
	448	V(s1#36pin@103_polysilicon-1##4)	voltage
	449	V(s1#36pin@103_polysilicon-1##5)	voltage
	450	V(s1#36pin@103_polysilicon-1##6)	voltage
	451	V(s1#36pin@103_polysilicon-1##7)	voltage
	452	V(s1#36pin@103_polysilicon-1##8)	voltage
	453	V(s1#36pin@103_polysilicon-1##9)	voltage
	454	V(s1#36pin@103_polysilicon-1##10)	voltage
	455	V(s1#36pin@103_polysilicon-1##11)	voltage
	456	V(s1#37pin@104_polysilicon-1##0)	voltage
	457	V(s1#37pin@104_polysilicon-1##1)	voltage
	458	V(s1#37pin@104_polysilicon-1##2)	voltage
	459	V(s1#37pin@104_polysilicon-1##3)	voltage
	460	V(s1#37pin@104_polysilicon-1##4)	voltage
	461	V(s1#37pin@104_polysilicon-1##5)	voltage
	462	V(s1#34pin@100_polysilicon-1##0)	voltage
	463	V(net@105#4pin@92_polysilicon-1##0)	voltage
	464	V(net@105#4pin@92_polysilicon-1##1)	voltage
	465	V(net@105#4pin@92_polysilicon-1##2)	voltage
	466	V(net@105#4pin@92_polysilicon-1##3)	voltage
	467	V(net@105#4pin@92_polysilicon-1##4)	voltage
	468	V(net@106#3pin@113_polysilicon-1##0)	voltage
	469	V(net@106#3pin@113_polysilicon-1##1)	voltage
	470	V(net@106#3pin@113_polysilicon-1##2)	voltage
	471	V(net@106#3pin@113_polysilicon-1##3)	voltage
	472	V(net@210#2pin@137_polysilicon-1##0)	voltage
	473	V(net@210#2pin@137_polysilicon-1##1)	voltage
	474	V(net@210#2pin@137_polysilicon-1##2)	voltage
	475	V(net@210#2pin@137_polysilicon-1##3)	voltage
	476	V(net@210#2pin@137_polysilicon-1##4)	voltage
	477	V(s2#5nmos@16_poly-right##0)	voltage
	478	V(s2#5nmos@16_poly-right##1)	voltage
	479	V(s2#7nmos@7_poly-right##0)	voltage
	480	V(s2#7nmos@7_poly-right##1)	voltage
	481	V(s2#9pmos@15_poly-left##0)	voltage
	482	V(s2#10pin@126_polysilicon-1##0)	voltage
	483	V(s2#10pin@126_polysilicon-1##1)	voltage
	484	V(s2#10pin@126_polysilicon-1##2)	voltage
	485	V(s2#10pin@126_polysilicon-1##3)	voltage
	486	V(s2#10pin@126_polysilicon-1##4)	voltage
	487	V(s2#10pin@126_polysilicon-1##5)	voltage
	488	V(s2#10pin@126_polysilicon-1##6)	voltage
	489	V(s2#10pin@126_polysilicon-1##7)	voltage
	490	V(s2#10pin@126_polysilicon-1##8)	voltage
	491	V(s2#10pin@126_polysilicon-1##9)	voltage
	492	V(s2#10pin@126_polysilicon-1##10)	voltage
	493	V(s2#10pin@126_polysilicon-1##11)	voltage
	494	V(s2#11pin@127_polysilicon-1##0)	voltage
	495	V(s2#11pin@127_polysilicon-1##1)	voltage
	496	V(s2#11pin@127_polysilicon-1##2)	voltage
	497	V(s2#11pin@127_polysilicon-1##3)	voltage
	498	V(s2#11pin@127_polysilicon-1##4)	voltage
	499	V(s2#11pin@127_polysilicon-1##5)	voltage
	500	V(s2#6pin@123_polysilicon-1##0)	voltage
	501	V(net@106#11nmos@12_poly-right##0)	voltage
	502	V(net@210#6pin@135_polysilicon-1##0)	voltage
	503	V(net@210#6pin@135_polysilicon-1##1)	voltage
	504	V(net@210#6pin@135_polysilicon-1##2)	voltage
	505	V(net@210#6pin@135_polysilicon-1##3)	voltage
	506	V(s2#15pmos@6_poly-left##0)	voltage
	507	V(s1#40nmos@10_poly-right##0)	voltage
	508	V(s1#40nmos@10_poly-right##1)	voltage
	509	V(net@210#8nmos@15_poly-right##0)	voltage
	510	V(s1#41pmos@9_poly-left##0)	voltage
	511	V(s2#17nmos@17_poly-left##0)	voltage
	512	V(s2#18pin@131_polysilicon-1##0)	voltage
	513	V(s2#18pin@131_polysilicon-1##1)	voltage
	514	V(s2#18pin@131_polysilicon-1##2)	voltage
	515	V(s2#18pin@131_polysilicon-1##3)	voltage
	516	V(s2#18pin@131_polysilicon-1##4)	voltage
	517	V(s2#18pin@131_polysilicon-1##5)	voltage
	518	V(s2#18pin@131_polysilicon-1##6)	voltage
	519	V(s2#18pin@131_polysilicon-1##7)	voltage
	520	V(s2#18pin@131_polysilicon-1##8)	voltage
	521	V(s2#18pin@131_polysilicon-1##9)	voltage
	522	V(s2#18pin@131_polysilicon-1##10)	voltage
	523	V(s2#18pin@131_polysilicon-1##11)	voltage
	524	V(s2#18pin@131_polysilicon-1##12)	voltage
	525	V(s2#18pin@131_polysilicon-1##13)	voltage
	526	V(s2#18pin@131_polysilicon-1##14)	voltage
	527	V(s2#18pin@131_polysilicon-1##15)	voltage
	528	V(s2#18pin@131_polysilicon-1##16)	voltage
	529	V(s2#18pin@131_polysilicon-1##17)	voltage
	530	V(s2#18pin@131_polysilicon-1##18)	voltage
	531	V(s2#18pin@131_polysilicon-1##19)	voltage
	532	V(s2#18pin@131_polysilicon-1##20)	voltage
	533	V(s2#18pin@131_polysilicon-1##21)	voltage
	534	V(s1#43nmos@14_poly-left##0)	voltage
	535	V(s2#16pin@51_polysilicon-1##0)	voltage
	536	V(s2#16pin@51_polysilicon-1##1)	voltage
	537	V(s2#16pin@51_polysilicon-1##2)	voltage
	538	V(s2#16pin@51_polysilicon-1##3)	voltage
	539	V(s2#16pin@51_polysilicon-1##4)	voltage
	540	V(s2#16pin@51_polysilicon-1##5)	voltage
	541	V(s2#16pin@51_polysilicon-1##6)	voltage
	542	V(s2#16pin@51_polysilicon-1##7)	voltage
	543	V(s2#16pin@51_polysilicon-1##8)	voltage
	544	V(s2#16pin@51_polysilicon-1##9)	voltage
	545	V(s2#16pin@51_polysilicon-1##10)	voltage
	546	V(s2#16pin@51_polysilicon-1##11)	voltage
	547	V(net@210#10pin@133_polysilicon-1##0)	voltage
	548	V(net@210#10pin@133_polysilicon-1##1)	voltage
	549	V(net@210#10pin@133_polysilicon-1##2)	voltage
	550	V(net@210#10pin@133_polysilicon-1##3)	voltage
	551	V(net@210#10pin@133_polysilicon-1##4)	voltage
	552	V(net@210#11pin@134_polysilicon-1##0)	voltage
	553	V(net@210#11pin@134_polysilicon-1##1)	voltage
	554	V(net@210#11pin@134_polysilicon-1##2)	voltage
	555	V(net@210#11pin@134_polysilicon-1##3)	voltage
	556	V(net@210#11pin@134_polysilicon-1##4)	voltage
	557	V(net@210#11pin@134_polysilicon-1##5)	voltage
	558	V(net@210#11pin@134_polysilicon-1##6)	voltage
	559	V(s1#42pin@80_polysilicon-1##0)	voltage
	560	V(s1#42pin@80_polysilicon-1##1)	voltage
	561	V(s1#42pin@80_polysilicon-1##2)	voltage
	562	V(s1#42pin@80_polysilicon-1##3)	voltage
	563	V(s1#42pin@80_polysilicon-1##4)	voltage
	564	V(s1#42pin@80_polysilicon-1##5)	voltage
	565	V(s1#42pin@80_polysilicon-1##6)	voltage
	566	V(s1#42pin@80_polysilicon-1##7)	voltage
	567	V(s1#42pin@80_polysilicon-1##8)	voltage
	568	V(s1#42pin@80_polysilicon-1##9)	voltage
	569	V(s1#42pin@80_polysilicon-1##10)	voltage
	570	V(s1#42pin@80_polysilicon-1##11)	voltage
	571	V(s1#45pin@81_polysilicon-1##0)	voltage
	572	V(s1#45pin@81_polysilicon-1##1)	voltage
	573	V(s1#45pin@81_polysilicon-1##2)	voltage
	574	V(s1#45pin@81_polysilicon-1##3)	voltage
	575	V(s1#45pin@81_polysilicon-1##4)	voltage
	576	V(s1#45pin@81_polysilicon-1##5)	voltage
	577	V(s2#19pin@52_polysilicon-1##0)	voltage
	578	V(s2#19pin@52_polysilicon-1##1)	voltage
	579	V(s2#19pin@52_polysilicon-1##2)	voltage
	580	V(s2#19pin@52_polysilicon-1##3)	voltage
	581	V(s2#19pin@52_polysilicon-1##4)	voltage
	582	V(s2#19pin@52_polysilicon-1##5)	voltage
	583	V(s1#44pin@109_polysilicon-1##0)	voltage
	584	V(s1#44pin@109_polysilicon-1##1)	voltage
	585	V(s1#44pin@109_polysilicon-1##2)	voltage
	586	V(s1#44pin@109_polysilicon-1##3)	voltage
	587	V(s1#44pin@109_polysilicon-1##4)	voltage
	588	V(s1#44pin@109_polysilicon-1##5)	voltage
	589	V(s1#44pin@109_polysilicon-1##6)	voltage
	590	V(s1#44pin@109_polysilicon-1##7)	voltage
	591	V(s1#44pin@109_polysilicon-1##8)	voltage
	592	V(s1#44pin@109_polysilicon-1##9)	voltage
	593	V(s1#44pin@109_polysilicon-1##10)	voltage
	594	V(s1#44pin@109_polysilicon-1##11)	voltage
	595	V(s1#44pin@109_polysilicon-1##12)	voltage
	596	V(s1#44pin@109_polysilicon-1##13)	voltage
	597	V(s1#44pin@109_polysilicon-1##14)	voltage
	598	V(s1#44pin@109_polysilicon-1##15)	voltage
	599	V(s1#44pin@109_polysilicon-1##16)	voltage
	600	V(s1#44pin@109_polysilicon-1##17)	voltage
	601	V(s1#44pin@109_polysilicon-1##18)	voltage
	602	V(s1#44pin@109_polysilicon-1##19)	voltage
	603	V(s1#44pin@109_polysilicon-1##20)	voltage
	604	V(s1#44pin@109_polysilicon-1##21)	voltage
	605	V(s1#29pin@77_polysilicon-1##0)	voltage
	606	V(s2#8pin@48_polysilicon-1##0)	voltage
	607	V(net@350#4pin@174_polysilicon-1##0)	voltage
	608	V(net@350#4pin@174_polysilicon-1##1)	voltage
	609	V(net@350#4pin@174_polysilicon-1##2)	voltage
	610	V(net@350#4pin@174_polysilicon-1##3)	voltage
	611	V(net@350#6nmos@18_poly-right##0)	voltage
	612	V(s0##0)	voltage
	613	V(s0##1)	voltage
	614	V(s0##2)	voltage
	615	V(s0##3)	voltage
	616	V(s0##4)	voltage
	617	V(s0##5)	voltage
	618	V(s0##6)	voltage
	619	V(net@350#5pin@176_polysilicon-1##0)	voltage
	620	V(net@350#5pin@176_polysilicon-1##1)	voltage
	621	V(net@350#5pin@176_polysilicon-1##2)	voltage
	622	V(net@350#5pin@176_polysilicon-1##3)	voltage
	623	V(net@350#5pin@176_polysilicon-1##4)	voltage
	624	V(s0#2nmos@19_poly-right##0)	voltage
	625	V(s0#2nmos@19_poly-right##1)	voltage
	626	V(s0#4pmos@18_poly-left##0)	voltage
	627	V(s0#5pin@164_polysilicon-1##0)	voltage
	628	V(s0#5pin@164_polysilicon-1##1)	voltage
	629	V(s0#5pin@164_polysilicon-1##2)	voltage
	630	V(s0#5pin@164_polysilicon-1##3)	voltage
	631	V(s0#5pin@164_polysilicon-1##4)	voltage
	632	V(s0#5pin@164_polysilicon-1##5)	voltage
	633	V(s0#5pin@164_polysilicon-1##6)	voltage
	634	V(s0#5pin@164_polysilicon-1##7)	voltage
	635	V(s0#5pin@164_polysilicon-1##8)	voltage
	636	V(s0#5pin@164_polysilicon-1##9)	voltage
	637	V(s0#5pin@164_polysilicon-1##10)	voltage
	638	V(s0#5pin@164_polysilicon-1##11)	voltage
	639	V(s0#6pin@165_polysilicon-1##0)	voltage
	640	V(s0#6pin@165_polysilicon-1##1)	voltage
	641	V(s0#6pin@165_polysilicon-1##2)	voltage
	642	V(s0#6pin@165_polysilicon-1##3)	voltage
	643	V(s0#6pin@165_polysilicon-1##4)	voltage
	644	V(s0#6pin@165_polysilicon-1##5)	voltage
	645	V(s0#3pin@161_polysilicon-1##0)	voltage
	646	V(s0#10nmos@20_poly-left##0)	voltage
	647	V(s0#11pin@170_polysilicon-1##0)	voltage
	648	V(s0#11pin@170_polysilicon-1##1)	voltage
	649	V(s0#11pin@170_polysilicon-1##2)	voltage
	650	V(s0#11pin@170_polysilicon-1##3)	voltage
	651	V(s0#11pin@170_polysilicon-1##4)	voltage
	652	V(s0#11pin@170_polysilicon-1##5)	voltage
	653	V(s0#11pin@170_polysilicon-1##6)	voltage
	654	V(s0#11pin@170_polysilicon-1##7)	voltage
	655	V(s0#11pin@170_polysilicon-1##8)	voltage
	656	V(s0#11pin@170_polysilicon-1##9)	voltage
	657	V(s0#11pin@170_polysilicon-1##10)	voltage
	658	V(s0#11pin@170_polysilicon-1##11)	voltage
	659	V(s0#11pin@170_polysilicon-1##12)	voltage
	660	V(s0#11pin@170_polysilicon-1##13)	voltage
	661	V(s0#11pin@170_polysilicon-1##14)	voltage
	662	V(s0#11pin@170_polysilicon-1##15)	voltage
	663	V(s0#11pin@170_polysilicon-1##16)	voltage
	664	V(s0#11pin@170_polysilicon-1##17)	voltage
	665	V(s0#11pin@170_polysilicon-1##18)	voltage
	666	V(s0#11pin@170_polysilicon-1##19)	voltage
	667	V(s0#11pin@170_polysilicon-1##20)	voltage
	668	V(s0#11pin@170_polysilicon-1##21)	voltage
	669	V(net@350#10pin@172_polysilicon-1##0)	voltage
	670	V(net@350#10pin@172_polysilicon-1##1)	voltage
	671	V(net@350#10pin@172_polysilicon-1##2)	voltage
	672	V(net@350#10pin@172_polysilicon-1##3)	voltage
	673	V(net@350#10pin@172_polysilicon-1##4)	voltage
	674	V(net@350#11pin@173_polysilicon-1##0)	voltage
	675	V(net@350#11pin@173_polysilicon-1##1)	voltage
	676	V(net@350#11pin@173_polysilicon-1##2)	voltage
	677	V(net@350#11pin@173_polysilicon-1##3)	voltage
	678	V(net@350#11pin@173_polysilicon-1##4)	voltage
	679	V(net@350#11pin@173_polysilicon-1##5)	voltage
	680	V(net@350#11pin@173_polysilicon-1##6)	voltage
	681	V(net@2#11nmos@3_poly-right##0)	voltage
	682	V(net@97#6pin@60_polysilicon-1##0)	voltage
	683	V(net@97#6pin@60_polysilicon-1##1)	voltage
	684	V(net@97#6pin@60_polysilicon-1##2)	voltage
	685	V(net@97#6pin@60_polysilicon-1##3)	voltage
	686	V(s1#48nmos@1_poly-right##0)	voltage
	687	V(s1#48nmos@1_poly-right##1)	voltage
	688	V(net@97#8nmos@6_poly-right##0)	voltage
	689	V(s1#49pmos@0_poly-left##0)	voltage
	690	V(s2#25nmos@8_poly-left##0)	voltage
	691	V(s2#26pin@56_polysilicon-1##0)	voltage
	692	V(s2#26pin@56_polysilicon-1##1)	voltage
	693	V(s2#26pin@56_polysilicon-1##2)	voltage
	694	V(s2#26pin@56_polysilicon-1##3)	voltage
	695	V(s2#26pin@56_polysilicon-1##4)	voltage